 TITLE = "velocity plot"
 VARIABLES = "X", "Y", "Z", "U", "V", "W", "p", "vapFrac"
 ZONE SOLUTIONTIME=0.000000, NODES=2744 , ELEMENTS=2197, DATAPACKING=POINT, ZONETYPE=FEBRICK
-0.0010000000 -0.0010000000 -0.0010000000 5190.0384028463 5190.0384028197 5190.0384028425 -42268658378.3412170410 1.0000000000 
0.0010000000 -0.0010000000 -0.0010000000 -5190.0384035072 5190.0384008081 5190.0384008084 -42268658398.5686187744 1.0000000000 
0.0010000000 0.0010000000 -0.0010000000 -5190.0384057213 -5190.0384056983 5190.0383963021 -42268658383.0201950073 1.0000000000 
-0.0010000000 0.0010000000 -0.0010000000 5190.0384007819 -5190.0384035306 5190.0384008087 -42268658398.5723266602 1.0000000000 
-0.0010000000 -0.0010000000 0.0010000000 5190.0384008239 5190.0384007972 -5190.0384035196 -42268658398.6902313232 1.0000000000 
0.0010000000 -0.0010000000 0.0010000000 -5190.0384057096 5190.0383963139 -5190.0384057102 -42268658383.0996704102 1.0000000000 
0.0010000000 0.0010000000 0.0010000000 -5190.0384031196 -5190.0384030957 -5190.0384030955 -42268658351.6897583008 1.0000000000 
-0.0010000000 0.0010000000 0.0010000000 5190.0383962954 -5190.0384057383 -5190.0384057156 -42268658383.1772308350 1.0000000000 
-0.0008461538 -0.0010000000 -0.0010000000 -827.2471465769 6982.8847228851 6982.8847229182 -54772114829.1198348999 1.0000000000 
-0.0006923077 -0.0010000000 -0.0010000000 388.6361269880 7802.5124850310 7802.5124850672 -65157795507.7402801514 1.0000000000 
-0.0005384615 -0.0010000000 -0.0010000000 -175.0648796568 7271.6895890445 7271.6895890744 -60295928944.4785614014 1.0000000000 
-0.0003846154 -0.0010000000 -0.0010000000 88.9567923593 7514.6458249996 7514.6458250282 -62832540069.3341140747 1.0000000000 
-0.0002307692 -0.0010000000 -0.0010000000 -43.8075341888 7407.9947418175 7407.9947418421 -61708238637.0504455566 1.0000000000 
-0.0000769231 -0.0010000000 -0.0010000000 32.1029913822 7442.1951514033 7442.1951514247 -62242451146.2880706787 1.0000000000 
0.0000769231 -0.0010000000 -0.0010000000 -32.1029913829 7442.1951513817 7442.1951513990 -62242451146.2740173340 1.0000000000 
0.0002307692 -0.0010000000 -0.0010000000 43.8075341791 7407.9947418654 7407.9947418791 -61708238636.9610137939 1.0000000000 
0.0003846154 -0.0010000000 -0.0010000000 -88.9567923264 7514.6458249468 7514.6458249576 -62832540069.2787857056 1.0000000000 
0.0005384615 -0.0010000000 -0.0010000000 175.0648795721 7271.6895890836 7271.6895890910 -60295928944.7789459229 1.0000000000 
0.0006923077 -0.0010000000 -0.0010000000 -388.6361269619 7802.5124852977 7802.5124853027 -65157795504.8936004639 1.0000000000 
0.0008461538 -0.0010000000 -0.0010000000 827.2471472960 6982.8847220720 6982.8847220724 -54772114836.9807891846 1.0000000000 
0.0010000000 -0.0008461538 -0.0010000000 -6982.8847229787 -827.2471461067 6982.8847202759 -54772114846.3102874756 1.0000000000 
0.0010000000 -0.0006923077 -0.0010000000 -7802.5124851412 388.6361268730 7802.5124814902 -65157795525.5060882568 1.0000000000 
0.0010000000 -0.0005384615 -0.0010000000 -7271.6895893889 -175.0648796165 7271.6895858827 -60295928962.0118179321 1.0000000000 
0.0010000000 -0.0003846154 -0.0010000000 -7514.6458250966 88.9567923581 7514.6458216800 -62832540087.5896835327 1.0000000000 
0.0010000000 -0.0002307692 -0.0010000000 -7407.9947420718 -43.8075342001 7407.9947385508 -61708238654.7959747314 1.0000000000 
0.0010000000 -0.0000769231 -0.0010000000 -7442.1951515666 32.1029914006 7442.1951481039 -62242451164.2909622192 1.0000000000 
0.0010000000 0.0000769231 -0.0010000000 -7442.1951515872 -32.1029914081 7442.1951480969 -62242451164.3706665039 1.0000000000 
0.0010000000 0.0002307692 -0.0010000000 -7407.9947420524 43.8075342232 7407.9947385266 -61708238654.5935668945 1.0000000000 
0.0010000000 0.0003846154 -0.0010000000 -7514.6458251269 -88.9567924187 7514.6458217442 -62832540087.9479217529 1.0000000000 
0.0010000000 0.0005384615 -0.0010000000 -7271.6895894282 175.0648797488 7271.6895856094 -60295928960.9382324219 1.0000000000 
0.0010000000 0.0006923077 -0.0010000000 -7802.5124848443 -388.6361271649 7802.5124822240 -65157795527.6757965088 1.0000000000 
0.0010000000 0.0008461538 -0.0010000000 -6982.8847239934 827.2471469226 6982.8847184548 -54772114843.1289215088 1.0000000000 
0.0008461538 0.0010000000 -0.0010000000 827.2471469253 -6982.8847239733 6982.8847184680 -54772114843.1903381348 1.0000000000 
0.0006923077 0.0010000000 -0.0010000000 -388.6361271653 -7802.5124848314 7802.5124822432 -65157795527.7688903809 1.0000000000 
0.0005384615 0.0010000000 -0.0010000000 175.0648797512 -7271.6895894149 7271.6895856194 -60295928960.9679412842 1.0000000000 
0.0003846154 0.0010000000 -0.0010000000 -88.9567924186 -7514.6458251169 7514.6458217530 -62832540087.9855651855 1.0000000000 
0.0002307692 0.0010000000 -0.0010000000 43.8075342248 -7407.9947420445 7407.9947385304 -61708238654.5941162109 1.0000000000 
0.0000769231 0.0010000000 -0.0010000000 -32.1029914070 -7442.1951515825 7442.1951480971 -62242451164.3574523926 1.0000000000 
-0.0000769231 0.0010000000 -0.0010000000 32.1029914018 -7442.1951515654 7442.1951480992 -62242451164.2439041138 1.0000000000 
-0.0002307692 0.0010000000 -0.0010000000 -43.8075341986 -7407.9947420736 7407.9947385427 -61708238654.7322692871 1.0000000000 
-0.0003846154 0.0010000000 -0.0010000000 88.9567923584 -7514.6458251008 7514.6458216669 -62832540087.4919281006 1.0000000000 
-0.0005384615 0.0010000000 -0.0010000000 -175.0648796143 -7271.6895893959 7271.6895858683 -60295928961.9182434082 1.0000000000 
-0.0006923077 0.0010000000 -0.0010000000 388.6361268732 -7802.5124851487 7802.5124814667 -65157795525.3549346924 1.0000000000 
-0.0008461538 0.0010000000 -0.0010000000 -827.2471461049 -6982.8847229913 6982.8847202587 -54772114846.1763534546 1.0000000000 
-0.0010000000 0.0008461538 -0.0010000000 6982.8847220505 827.2471472992 6982.8847220855 -54772114837.0388183594 1.0000000000 
-0.0010000000 0.0006923077 -0.0010000000 7802.5124852861 -388.6361269623 7802.5124853229 -65157795504.9808349609 1.0000000000 
-0.0010000000 0.0005384615 -0.0010000000 7271.6895890711 175.0648795745 7271.6895891017 -60295928944.8028335571 1.0000000000 
-0.0010000000 0.0003846154 -0.0010000000 7514.6458249378 -88.9567923263 7514.6458249672 -62832540069.3102416992 1.0000000000 
-0.0010000000 0.0002307692 -0.0010000000 7407.9947418584 43.8075341808 7407.9947418837 -61708238636.9562225342 1.0000000000 
-0.0010000000 0.0000769231 -0.0010000000 7442.1951513778 -32.1029913818 7442.1951514000 -62242451146.2532577515 1.0000000000 
-0.0010000000 -0.0000769231 -0.0010000000 7442.1951514030 32.1029913834 7442.1951514209 -62242451146.2351837158 1.0000000000 
-0.0010000000 -0.0002307692 -0.0010000000 7407.9947418202 -43.8075341872 7407.9947418348 -61708238636.9796905518 1.0000000000 
-0.0010000000 -0.0003846154 -0.0010000000 7514.6458250047 88.9567923594 7514.6458250158 -62832540069.2304229736 1.0000000000 
-0.0010000000 -0.0005384615 -0.0010000000 7271.6895890525 -175.0648796545 7271.6895890610 -60295928944.3784255981 1.0000000000 
-0.0010000000 -0.0006923077 -0.0010000000 7802.5124850393 388.6361269879 7802.5124850441 -65157795507.5808944702 1.0000000000 
-0.0010000000 -0.0008461538 -0.0010000000 6982.8847228996 -827.2471465751 6982.8847229034 -54772114828.9866333008 1.0000000000 
-0.0008461538 -0.0010000000 0.0010000000 -827.2471461099 6982.8847202648 -6982.8847229962 -54772114846.4584503174 1.0000000000 
-0.0006923077 -0.0010000000 0.0010000000 388.6361268738 7802.5124814799 -7802.5124851611 -65157795525.6662597656 1.0000000000 
-0.0005384615 -0.0010000000 0.0010000000 -175.0648796169 7271.6895858766 -7271.6895894031 -60295928962.1554946899 1.0000000000 
-0.0003846154 -0.0010000000 0.0010000000 88.9567923584 7514.6458216760 -7514.6458251089 -62832540087.7432174683 1.0000000000 
-0.0002307692 -0.0010000000 0.0010000000 -43.8075342004 7407.9947385505 -7407.9947420804 -61708238654.9439697266 1.0000000000 
-0.0000769231 -0.0010000000 0.0010000000 32.1029914008 7442.1951481070 -7442.1951515722 -62242451164.4387512207 1.0000000000 
0.0000769231 -0.0010000000 0.0010000000 -32.1029914082 7442.1951481040 -7442.1951515884 -62242451164.5204315186 1.0000000000 
0.0002307692 -0.0010000000 0.0010000000 43.8075342234 7407.9947385372 -7407.9947420503 -61708238654.7408752441 1.0000000000 
0.0003846154 -0.0010000000 0.0010000000 -88.9567924190 7514.6458217582 -7514.6458251211 -62832540088.1008453369 1.0000000000 
0.0005384615 -0.0010000000 0.0010000000 175.0648797492 7271.6895856257 -7271.6895894202 -60295928961.0821380615 1.0000000000 
0.0006923077 -0.0010000000 0.0010000000 -388.6361271654 7802.5124822450 -7802.5124848323 -65157795527.8354721069 1.0000000000 
0.0008461538 -0.0010000000 0.0010000000 827.2471469234 6982.8847184761 -6982.8847239802 -54772114843.2643737793 1.0000000000 
0.0010000000 -0.0008461538 0.0010000000 -6982.8847241831 -827.2471453819 -6982.8847241791 -54772114821.2668457031 1.0000000000 
0.0010000000 -0.0006923077 0.0010000000 -7802.5124856474 388.6361265518 -7802.5124856412 -65157795492.5060119629 1.0000000000 
0.0010000000 -0.0005384615 0.0010000000 -7271.6895901803 -175.0648794619 -7271.6895901709 -60295928933.0066070557 1.0000000000 
0.0010000000 -0.0003846154 0.0010000000 -7514.6458258135 88.9567922866 -7514.6458258012 -62832540056.8339691162 1.0000000000 
0.0010000000 -0.0002307692 0.0010000000 -7407.9947428034 -43.8075341681 -7407.9947427878 -61708238624.8226470947 1.0000000000 
0.0010000000 -0.0000769231 0.0010000000 -7442.1951522891 32.1029913891 -7442.1951522702 -62242451133.9580383301 1.0000000000 
0.0010000000 0.0000769231 0.0010000000 -7442.1951523192 -32.1029914091 -7442.1951522960 -62242451134.2641448975 1.0000000000 
0.0010000000 0.0002307692 0.0010000000 -7407.9947427815 43.8075342297 -7407.9947427553 -61708238624.1534118652 1.0000000000 
0.0010000000 0.0003846154 0.0010000000 -7514.6458258695 -88.9567924204 -7514.6458258392 -62832540058.1080856323 1.0000000000 
0.0010000000 0.0005384615 0.0010000000 -7271.6895900841 175.0648797055 -7271.6895900526 -60295928930.0143737793 1.0000000000 
0.0010000000 0.0006923077 0.0010000000 -7802.5124860088 -388.6361269718 -7802.5124859710 -65157795498.1552886963 1.0000000000 
0.0010000000 0.0008461538 0.0010000000 -6982.8847237146 827.2471462212 -6982.8847236797 -54772114812.2151641846 1.0000000000 
0.0008461538 0.0010000000 0.0010000000 827.2471462231 -6982.8847236961 -6982.8847236956 -54772114812.3012695312 1.0000000000 
0.0006923077 0.0010000000 0.0010000000 -388.6361269725 -7802.5124859979 -7802.5124859928 -65157795498.2914352417 1.0000000000 
0.0005384615 0.0010000000 0.0010000000 175.0648797081 -7271.6895900727 -7271.6895900652 -60295928930.0864868164 1.0000000000 
0.0003846154 0.0010000000 0.0010000000 -88.9567924203 -7514.6458258614 -7514.6458258507 -62832540058.1848449707 1.0000000000 
0.0002307692 0.0010000000 0.0010000000 43.8075342314 -7407.9947427755 -7407.9947427616 -61708238624.1969451904 1.0000000000 
0.0000769231 0.0010000000 0.0010000000 -32.1029914080 -7442.1951523164 -7442.1951522991 -62242451134.2886505127 1.0000000000 
-0.0000769231 0.0010000000 0.0010000000 32.1029913902 -7442.1951522898 -7442.1951522682 -62242451133.9526519775 1.0000000000 
-0.0002307692 0.0010000000 0.0010000000 -43.8075341666 -7407.9947428072 -7407.9947427826 -61708238624.7994003296 1.0000000000 
-0.0003846154 0.0010000000 0.0010000000 88.9567922869 -7514.6458258196 -7514.6458257908 -62832540056.7780227661 1.0000000000 
-0.0005384615 0.0010000000 0.0010000000 -175.0648794601 -7271.6895901891 -7271.6895901592 -60295928932.9530029297 1.0000000000 
-0.0006923077 0.0010000000 0.0010000000 388.6361265526 -7802.5124856570 -7802.5124856207 -65157795492.4003753662 1.0000000000 
-0.0008461538 0.0010000000 0.0010000000 -827.2471453828 -6982.8847241975 -6982.8847241643 -54772114821.1727294922 1.0000000000 
-0.0010000000 0.0008461538 0.0010000000 6982.8847184530 827.2471469296 -6982.8847239930 -54772114843.3174285889 1.0000000000 
-0.0010000000 0.0006923077 0.0010000000 7802.5124822335 -388.6361271670 -7802.5124848535 -65157795527.9379577637 1.0000000000 
-0.0010000000 0.0005384615 0.0010000000 7271.6895856124 175.0648797521 -7271.6895894312 -60295928961.1120605469 1.0000000000 
-0.0010000000 0.0003846154 0.0010000000 7514.6458217486 -88.9567924191 -7514.6458251313 -62832540088.1410140991 1.0000000000 
-0.0010000000 0.0002307692 0.0010000000 7407.9947385296 43.8075342251 -7407.9947420553 -61708238654.7444229126 1.0000000000 
-0.0010000000 0.0000769231 0.0010000000 7442.1951480997 -32.1029914071 -7442.1951515900 -62242451164.5069122314 1.0000000000 
-0.0010000000 -0.0000769231 0.0010000000 7442.1951481061 32.1029914019 -7442.1951515687 -62242451164.3948516846 1.0000000000 
-0.0010000000 -0.0002307692 0.0010000000 7407.9947385527 -43.8075341988 -7407.9947420737 -61708238654.8822784424 1.0000000000 
-0.0010000000 -0.0003846154 0.0010000000 7514.6458216805 88.9567923586 -7514.6458250970 -62832540087.6468353271 1.0000000000 
-0.0010000000 -0.0005384615 0.0010000000 7271.6895858840 -175.0648796147 -7271.6895893902 -60295928962.0644836426 1.0000000000 
-0.0010000000 -0.0006923077 0.0010000000 7802.5124814876 388.6361268739 -7802.5124851385 -65157795525.5164337158 1.0000000000 
-0.0010000000 -0.0008461538 0.0010000000 6982.8847202790 -827.2471461077 -6982.8847229815 -54772114846.3261413574 1.0000000000 
-0.0010000000 -0.0010000000 -0.0008461538 6982.8847229140 6982.8847228815 -827.2471465769 -54772114829.0553741455 1.0000000000 
-0.0010000000 -0.0010000000 -0.0006923077 7802.5124850673 7802.5124850257 388.6361269891 -65157795507.7060089111 1.0000000000 
-0.0010000000 -0.0010000000 -0.0005384615 7271.6895890752 7271.6895890381 -175.0648796565 -60295928944.4496307373 1.0000000000 
-0.0010000000 -0.0010000000 -0.0003846154 7514.6458250313 7514.6458249921 88.9567923599 -62832540069.3197937012 1.0000000000 
-0.0010000000 -0.0010000000 -0.0002307692 7407.9947418469 7407.9947418086 -43.8075341884 -61708238637.0450820923 1.0000000000 
-0.0010000000 -0.0010000000 -0.0000769231 7442.1951514317 7442.1951513931 32.1029913829 -62242451146.2947769165 1.0000000000 
-0.0010000000 -0.0010000000 0.0000769231 7442.1951514081 7442.1951513695 -32.1029913823 -62242451146.2940216064 1.0000000000 
-0.0010000000 -0.0010000000 0.0002307692 7407.9947418902 7407.9947418520 43.8075341800 -61708238636.9916534424 1.0000000000 
-0.0010000000 -0.0010000000 0.0003846154 7514.6458249709 7514.6458249317 -88.9567923262 -62832540069.3265838623 1.0000000000 
-0.0010000000 -0.0010000000 0.0005384615 7271.6895891051 7271.6895890679 175.0648795733 -60295928944.8254547119 1.0000000000 
-0.0010000000 -0.0010000000 0.0006923077 7802.5124853217 7802.5124852802 -388.6361269624 -65157795504.9734191895 1.0000000000 
-0.0010000000 -0.0010000000 0.0008461538 6982.8847220865 6982.8847220541 827.2471473005 -54772114837.0509567261 1.0000000000 
0.0010000000 -0.0010000000 -0.0008461538 -6982.8847229778 6982.8847202774 -827.2471461062 -54772114846.3232727051 1.0000000000 
0.0010000000 -0.0010000000 -0.0006923077 -7802.5124851404 7802.5124814924 388.6361268735 -65157795525.5241699219 1.0000000000 
0.0010000000 -0.0010000000 -0.0005384615 -7271.6895893865 7271.6895858870 -175.0648796159 -60295928962.0429000854 1.0000000000 
0.0010000000 -0.0010000000 -0.0003846154 -7514.6458250933 7514.6458216860 88.9567923587 -62832540087.6305313110 1.0000000000 
0.0010000000 -0.0010000000 -0.0002307692 -7407.9947420670 7407.9947385587 -43.8075341996 -61708238654.8488006592 1.0000000000 
0.0010000000 -0.0010000000 -0.0000769231 -7442.1951515606 7442.1951481140 32.1029914013 -62242451164.3544464111 1.0000000000 
0.0010000000 -0.0010000000 0.0000769231 -7442.1951515792 7442.1951481091 -32.1029914075 -62242451164.4485626221 1.0000000000 
0.0010000000 -0.0010000000 0.0002307692 -7407.9947420431 7407.9947385409 43.8075342239 -61708238654.6822128296 1.0000000000 
0.0010000000 -0.0010000000 0.0003846154 -7514.6458251159 7514.6458217605 -88.9567924184 -62832540088.0514297485 1.0000000000 
0.0010000000 -0.0010000000 0.0005384615 -7271.6895894168 7271.6895856269 175.0648797497 -60295928961.0449676514 1.0000000000 
0.0010000000 -0.0010000000 0.0006923077 -7802.5124848307 7802.5124822452 -388.6361271646 -65157795527.8073806763 1.0000000000 
0.0010000000 -0.0010000000 0.0008461538 -6982.8847239800 6982.8847184746 827.2471469243 -54772114843.2620697021 1.0000000000 
0.0010000000 0.0010000000 -0.0008461538 -6982.8847241957 -6982.8847241594 -827.2471453802 -54772114821.1355895996 1.0000000000 
0.0010000000 0.0010000000 -0.0006923077 -7802.5124856610 -7802.5124856199 388.6361265520 -65157795492.3757095337 1.0000000000 
0.0010000000 0.0010000000 -0.0005384615 -7271.6895901915 -7271.6895901533 -175.0648794611 -60295928932.9012832642 1.0000000000 
0.0010000000 0.0010000000 -0.0003846154 -7514.6458258244 -7514.6458257848 88.9567922870 -62832540056.7310485840 1.0000000000 
0.0010000000 0.0010000000 -0.0002307692 -7407.9947428125 -7407.9947427736 -43.8075341674 -61708238624.7345886230 1.0000000000 
0.0010000000 0.0010000000 -0.0000769231 -7442.1951522970 -7442.1951522578 32.1029913897 -62242451133.8811340332 1.0000000000 
0.0010000000 0.0010000000 0.0000769231 -7442.1951523251 -7442.1951522859 -32.1029914084 -62242451134.2005615234 1.0000000000 
0.0010000000 0.0010000000 0.0002307692 -7407.9947427861 -7407.9947427471 43.8075342303 -61708238624.1013031006 1.0000000000 
0.0010000000 0.0010000000 0.0003846154 -7514.6458258727 -7514.6458258331 -88.9567924198 -62832540058.0673675537 1.0000000000 
0.0010000000 0.0010000000 0.0005384615 -7271.6895900864 -7271.6895900481 175.0648797062 -60295928929.9841079712 1.0000000000 
0.0010000000 0.0010000000 0.0006923077 -7802.5124860096 -7802.5124859686 -388.6361269713 -65157795498.1382751465 1.0000000000 
0.0010000000 0.0010000000 0.0008461538 -6982.8847237154 -6982.8847236782 827.2471462217 -54772114812.2027359009 1.0000000000 
-0.0010000000 0.0010000000 -0.0008461538 6982.8847202427 -6982.8847230137 -827.2471461066 -54772114846.3219909668 1.0000000000 
-0.0010000000 0.0010000000 -0.0006923077 7802.5124814519 -7802.5124851810 388.6361268735 -65157795525.5221405029 1.0000000000 
-0.0010000000 0.0010000000 -0.0005384615 7271.6895858500 -7271.6895894241 -175.0648796159 -60295928962.0413894653 1.0000000000 
-0.0010000000 0.0010000000 -0.0003846154 7514.6458216473 -7514.6458251324 88.9567923587 -62832540087.6294708252 1.0000000000 
-0.0010000000 0.0010000000 -0.0002307692 7407.9947385208 -7407.9947421054 -43.8075341996 -61708238654.8477935791 1.0000000000 
-0.0010000000 0.0010000000 -0.0000769231 7442.1951480757 -7442.1951515992 32.1029914013 -62242451164.3517608643 1.0000000000 
-0.0010000000 0.0010000000 0.0000769231 7442.1951480709 -7442.1951516179 -32.1029914075 -62242451164.4474334717 1.0000000000 
-0.0010000000 0.0010000000 0.0002307692 7407.9947385029 -7407.9947420814 43.8075342240 -61708238654.6793518066 1.0000000000 
-0.0010000000 0.0010000000 0.0003846154 7514.6458217219 -7514.6458251551 -88.9567924186 -62832540088.0507965088 1.0000000000 
-0.0010000000 0.0010000000 0.0005384615 7271.6895855896 -7271.6895894542 175.0648797502 -60295928961.0405426025 1.0000000000 
-0.0010000000 0.0010000000 0.0006923077 7802.5124822054 -7802.5124848718 -388.6361271658 -65157795527.8122100830 1.0000000000 
-0.0010000000 0.0010000000 0.0008461538 6982.8847184385 -6982.8847240150 827.2471469278 -54772114843.2497711182 1.0000000000 
-0.0008461538 -0.0008461538 -0.0010000000 -1028.9242705794 -1028.9242705815 9559.9998854626 -75195295541.3988647461 1.0000000000 
-0.0008461538 -0.0006923077 -0.0010000000 -469.1852542458 425.3320239298 11128.1781776950 -87571806674.2933654785 1.0000000000 
-0.0008461538 -0.0005384615 -0.0010000000 -605.0149474634 -213.0898857567 10193.7758515662 -80164373192.7219085693 1.0000000000 
-0.0008461538 -0.0003846154 -0.0010000000 -449.1752751326 117.1086123169 10592.9432410225 -84240017668.2731170654 1.0000000000 
-0.0008461538 -0.0002307692 -0.0010000000 -550.2863865051 -74.1532859370 10432.9958303246 -82107533805.9097900391 1.0000000000 
-0.0008461538 -0.0000769231 -0.0010000000 -496.8621296638 47.3175348328 10497.6899966271 -82851056071.0287170410 1.0000000000 
-0.0008461538 0.0000769231 -0.0010000000 -496.8621296691 -47.3175348319 10497.6899965780 -82851056071.0898742676 1.0000000000 
-0.0008461538 0.0002307692 -0.0010000000 -550.2863865036 74.1532859286 10432.9958303907 -82107533805.8787536621 1.0000000000 
-0.0008461538 0.0003846154 -0.0010000000 -449.1752751335 -117.1086122907 10592.9432409291 -84240017668.3213500977 1.0000000000 
-0.0008461538 0.0005384615 -0.0010000000 -605.0149474562 213.0898856854 10193.7758516429 -80164373193.0342407227 1.0000000000 
-0.0008461538 0.0006923077 -0.0010000000 -469.1852543279 -425.3320238685 11128.1781779309 -87571806672.3689270020 1.0000000000 
-0.0008461538 0.0008461538 -0.0010000000 -1028.9242704576 1028.9242710553 9559.9998843041 -75195295548.4092864990 1.0000000000 
-0.0006923077 -0.0008461538 -0.0010000000 425.3320239315 -469.1852542509 11128.1781777064 -87571806674.3373413086 1.0000000000 
-0.0006923077 -0.0006923077 -0.0010000000 921.4740482528 921.4740482512 12712.9525147228 -134141604019.5955657959 1.0000000000 
-0.0006923077 -0.0005384615 -0.0010000000 644.2968916332 -411.6125425033 11511.2449895193 -115370377753.9556579590 1.0000000000 
-0.0006923077 -0.0003846154 -0.0010000000 916.2264798970 301.4846740423 11989.2218683644 -129494617705.1672058105 1.0000000000 
-0.0006923077 -0.0002307692 -0.0010000000 702.9320566773 -237.5903261903 11801.0095798644 -121010253947.2543182373 1.0000000000 
-0.0006923077 -0.0000769231 -0.0010000000 801.8106331785 214.1177864027 11850.1876750062 -125056979264.4151916504 1.0000000000 
-0.0006923077 0.0000769231 -0.0010000000 801.8106331580 -214.1177864013 11850.1876749988 -125056979263.7846984863 1.0000000000 
-0.0006923077 0.0002307692 -0.0010000000 702.9320566998 237.5903261816 11801.0095798977 -121010253947.8885803223 1.0000000000 
-0.0006923077 0.0003846154 -0.0010000000 916.2264798781 -301.4846740186 11989.2218683085 -129494617704.4268493652 1.0000000000 
-0.0006923077 0.0005384615 -0.0010000000 644.2968916398 411.6125424509 11511.2449895156 -115370377754.9816894531 1.0000000000 
-0.0006923077 0.0006923077 -0.0010000000 921.4740482590 -921.4740483164 12712.9525151713 -134141604016.3036499023 1.0000000000 
-0.0006923077 0.0008461538 -0.0010000000 425.3320238315 469.1852548086 11128.1781764971 -87571806677.9727935791 1.0000000000 
-0.0005384615 -0.0008461538 -0.0010000000 -213.0898857571 -605.0149474668 10193.7758515690 -80164373192.7237854004 1.0000000000 
-0.0005384615 -0.0006923077 -0.0010000000 -411.6125425038 644.2968916329 11511.2449895143 -115370377753.8941497803 1.0000000000 
-0.0005384615 -0.0005384615 -0.0010000000 -330.2830282410 -330.2830282406 10618.9883575297 -96601781085.8605957031 1.0000000000 
-0.0005384615 -0.0003846154 -0.0010000000 -554.8753037402 229.1420419919 10889.7015879644 -110505366397.4805603027 1.0000000000 
-0.0005384615 -0.0002307692 -0.0010000000 -479.1945586859 -266.5086959756 10891.0135304526 -99940050002.0494384766 1.0000000000 
-0.0005384615 -0.0000769231 -0.0010000000 -528.4127600363 241.3252441944 10859.8153052193 -104520101805.3065948486 1.0000000000 
-0.0005384615 0.0000769231 -0.0010000000 -528.4127600339 -241.3252441929 10859.8153052952 -104520101804.5755615234 1.0000000000 
-0.0005384615 0.0002307692 -0.0010000000 -479.1945586907 266.5086959806 10891.0135303958 -99940050002.8858337402 1.0000000000 
-0.0005384615 0.0003846154 -0.0010000000 -554.8753037292 -229.1420419867 10889.7015879496 -110505366396.9656372070 1.0000000000 
-0.0005384615 0.0005384615 -0.0010000000 -330.2830282351 330.2830282066 10618.9883575593 -96601781086.6074218750 1.0000000000 
-0.0005384615 0.0006923077 -0.0010000000 -411.6125425003 -644.2968916772 11511.2449898602 -115370377751.5691833496 1.0000000000 
-0.0005384615 0.0008461538 -0.0010000000 -213.0898857243 605.0149480487 10193.7758505879 -80164373197.2995758057 1.0000000000 
-0.0003846154 -0.0008461538 -0.0010000000 117.1086123187 -449.1752751346 10592.9432410279 -84240017668.2911834717 1.0000000000 
-0.0003846154 -0.0006923077 -0.0010000000 301.4846740443 916.2264798968 11989.2218683623 -129494617705.2038269043 1.0000000000 
-0.0003846154 -0.0005384615 -0.0010000000 229.1420419912 -554.8753037403 10889.7015879656 -110505366397.5612487793 1.0000000000 
-0.0003846154 -0.0003846154 -0.0010000000 185.7756628452 185.7756628437 11510.9384045195 -118162261268.0034790039 1.0000000000 
-0.0003846154 -0.0002307692 -0.0010000000 195.8424060591 -206.8744418259 11344.0454741678 -110593828651.4635925293 1.0000000000 
-0.0003846154 -0.0000769231 -0.0010000000 140.2446655038 152.8784439944 11392.2282408020 -113170672325.1806793213 1.0000000000 
-0.0003846154 0.0000769231 -0.0010000000 140.2446655096 -152.8784439940 11392.2282408256 -113170672324.5418395996 1.0000000000 
-0.0003846154 0.0002307692 -0.0010000000 195.8424060594 206.8744418197 11344.0454741987 -110593828652.0686187744 1.0000000000 
-0.0003846154 0.0003846154 -0.0010000000 185.7756628434 -185.7756628067 11510.9384044497 -118162261267.4808349609 1.0000000000 
-0.0003846154 0.0005384615 -0.0010000000 229.1420420082 554.8753036815 10889.7015878957 -110505366399.0225524902 1.0000000000 
-0.0003846154 0.0006923077 -0.0010000000 301.4846740292 -916.2264799697 11989.2218687728 -129494617701.9312133789 1.0000000000 
-0.0003846154 0.0008461538 -0.0010000000 117.1086122972 449.1752757048 10592.9432400012 -84240017672.1069030762 1.0000000000 
-0.0002307692 -0.0008461538 -0.0010000000 -74.1532859367 -550.2863865071 10432.9958303265 -82107533805.9045410156 1.0000000000 
-0.0002307692 -0.0006923077 -0.0010000000 -237.5903261912 702.9320566770 11801.0095798619 -121010253947.2141876221 1.0000000000 
-0.0002307692 -0.0005384615 -0.0010000000 -266.5086959765 -479.1945586845 10891.0135304537 -99940050002.0264892578 1.0000000000 
-0.0002307692 -0.0003846154 -0.0010000000 -206.8744418263 195.8424060601 11344.0454741666 -110593828651.4228515625 1.0000000000 
-0.0002307692 -0.0002307692 -0.0010000000 -238.0132043783 -238.0132043783 11265.2782662109 -100856116846.5773010254 1.0000000000 
-0.0002307692 -0.0000769231 -0.0010000000 11.8160547384 224.1291120713 11561.2190886112 -105442392183.3551483154 1.0000000000 
-0.0002307692 0.0000769231 -0.0010000000 11.8160547591 -224.1291120509 11561.2190885236 -105442392183.1358032227 1.0000000000 
-0.0002307692 0.0002307692 -0.0010000000 -238.0132043452 238.0132043627 11265.2782661136 -100856116847.6727447510 1.0000000000 
-0.0002307692 0.0003846154 -0.0010000000 -206.8744418267 -195.8424060383 11344.0454741360 -110593828650.9597778320 1.0000000000 
-0.0002307692 0.0005384615 -0.0010000000 -266.5086959856 479.1945586431 10891.0135303718 -99940050003.4046630859 1.0000000000 
-0.0002307692 0.0006923077 -0.0010000000 -237.5903261698 -702.9320567412 11801.0095802537 -121010253944.5826721191 1.0000000000 
-0.0002307692 0.0008461538 -0.0010000000 -74.1532859221 550.2863870862 10432.9958293196 -82107533810.1620788574 1.0000000000 
-0.0000769231 -0.0008461538 -0.0010000000 47.3175348338 -496.8621296650 10497.6899966285 -82851056071.0266418457 1.0000000000 
-0.0000769231 -0.0006923077 -0.0010000000 214.1177864036 801.8106331796 11850.1876750056 -125056979264.4515991211 1.0000000000 
-0.0000769231 -0.0005384615 -0.0010000000 241.3252441930 -528.4127600380 10859.8153052184 -104520101805.3764648438 1.0000000000 
-0.0000769231 -0.0003846154 -0.0010000000 152.8784439952 140.2446655031 11392.2282408022 -113170672325.1922302246 1.0000000000 
-0.0000769231 -0.0002307692 -0.0010000000 224.1291120701 11.8160547376 11561.2190886102 -105442392183.4121398926 1.0000000000 
-0.0000769231 -0.0000769231 -0.0010000000 479.2951065059 479.2951065031 13262.2759650677 -120171467928.9102020264 1.0000000000 
-0.0000769231 0.0000769231 -0.0010000000 479.2951065157 -479.2951064483 13262.2759646317 -120171467929.3122406006 1.0000000000 
-0.0000769231 0.0002307692 -0.0010000000 224.1291120853 -11.8160547775 11561.2190881871 -105442392185.4465332031 1.0000000000 
-0.0000769231 0.0003846154 -0.0010000000 152.8784439930 -140.2446655020 11392.2282407954 -113170672324.6148071289 1.0000000000 
-0.0000769231 0.0005384615 -0.0010000000 241.3252442052 528.4127599986 10859.8153051599 -104520101806.7194824219 1.0000000000 
-0.0000769231 0.0006923077 -0.0010000000 214.1177863831 -801.8106332452 11850.1876753504 -125056979261.6694335938 1.0000000000 
-0.0000769231 0.0008461538 -0.0010000000 47.3175348205 496.8621302321 10497.6899955961 -82851056075.1441040039 1.0000000000 
0.0000769231 -0.0008461538 -0.0010000000 -47.3175348309 -496.8621296709 10497.6899965767 -82851056071.0672454834 1.0000000000 
0.0000769231 -0.0006923077 -0.0010000000 -214.1177864004 801.8106331583 11850.1876749996 -125056979263.7596740723 1.0000000000 
0.0000769231 -0.0005384615 -0.0010000000 -241.3252441941 -528.4127600328 10859.8153052962 -104520101804.4981842041 1.0000000000 
0.0000769231 -0.0003846154 -0.0010000000 -152.8784439930 140.2446655106 11392.2282408252 -113170672324.5345153809 1.0000000000 
0.0000769231 -0.0002307692 -0.0010000000 -224.1291120519 11.8160547592 11561.2190885248 -105442392183.0691223145 1.0000000000 
0.0000769231 -0.0000769231 -0.0010000000 -479.2951064451 479.2951065193 13262.2759646306 -120171467929.2959289551 1.0000000000 
0.0000769231 0.0000769231 -0.0010000000 -479.2951064752 -479.2951064716 13262.2759643237 -120171467929.4835662842 1.0000000000 
0.0000769231 0.0002307692 -0.0010000000 -224.1291120808 -11.8160547918 11561.2190882435 -105442392184.8130645752 1.0000000000 
0.0000769231 0.0003846154 -0.0010000000 -152.8784439903 -140.2446654925 11392.2282407931 -113170672324.0132446289 1.0000000000 
0.0000769231 0.0005384615 -0.0010000000 -241.3252442036 528.4127599865 10859.8153051849 -104520101806.1534118652 1.0000000000 