 TITLE = "velocity plot"
 VARIABLES = "X", "Y", "Z", "U", "V", "W", "p", "vapFrac"
 ZONE SOLUTIONTIME=0.000000, NODES=2744 , ELEMENTS=2197, DATAPACKING=POINT, ZONETYPE=FEBRICK
-0.0010000000 -0.0010000000 -0.0010000000 7.6920880264 7.6920880264 7.6920880264 -67967928.9785400033 1.0000000000 
0.0010000000 -0.0010000000 -0.0010000000 -7.6920880261 7.6920880235 7.6920880235 -67967928.9792761207 1.0000000000 
0.0010000000 0.0010000000 -0.0010000000 -7.6920880290 -7.6920880289 7.6920880206 -67967928.9786158502 1.0000000000 
-0.0010000000 0.0010000000 -0.0010000000 7.6920880235 -7.6920880261 7.6920880235 -67967928.9792761654 1.0000000000 
-0.0010000000 -0.0010000000 0.0010000000 7.6920880236 7.6920880235 -7.6920880261 -67967928.9792859852 1.0000000000 
0.0010000000 -0.0010000000 0.0010000000 -7.6920880289 7.6920880206 -7.6920880289 -67967928.9786235988 1.0000000000 
0.0010000000 0.0010000000 0.0010000000 -7.6920880316 -7.6920880315 -7.6920880315 -67967928.9765996933 1.0000000000 
-0.0010000000 0.0010000000 0.0010000000 7.6920880206 -7.6920880290 -7.6920880289 -67967928.9786300957 1.0000000000 
-0.0008461538 -0.0010000000 -0.0010000000 -2.0305287533 7.7887556752 7.7887556753 -68781752.0399740636 1.0000000000 
-0.0006923077 -0.0010000000 -0.0010000000 0.5484944817 7.8248268107 7.8248268108 -69181547.4636657983 1.0000000000 
-0.0005384615 -0.0010000000 -0.0010000000 -0.1517332702 7.7972728462 7.7972728463 -68901819.2607483566 1.0000000000 
-0.0003846154 -0.0010000000 -0.0010000000 0.0429654599 7.8085264086 7.8085264086 -69022850.5596212447 1.0000000000 
-0.0002307692 -0.0010000000 -0.0010000000 -0.0126427485 7.8047104475 7.8047104475 -68978583.0148391873 1.0000000000 
-0.0000769231 -0.0010000000 -0.0010000000 0.0046754643 7.8056670853 7.8056670853 -68992811.4544088542 1.0000000000 
0.0000769231 -0.0010000000 -0.0010000000 -0.0046754643 7.8056670853 7.8056670853 -68992811.4544067234 1.0000000000 
0.0002307692 -0.0010000000 -0.0010000000 0.0126427485 7.8047104475 7.8047104475 -68978583.0148417354 1.0000000000 
0.0003846154 -0.0010000000 -0.0010000000 -0.0429654599 7.8085264087 7.8085264087 -69022850.5596003532 1.0000000000 
0.0005384615 -0.0010000000 -0.0010000000 0.1517332702 7.7972728461 7.7972728461 -68901819.2607947141 1.0000000000 
0.0006923077 -0.0010000000 -0.0010000000 -0.5484944816 7.8248268112 7.8248268112 -69181547.4635331184 1.0000000000 
0.0008461538 -0.0010000000 -0.0010000000 2.0305287532 7.7887556746 7.7887556746 -68781752.0401385725 1.0000000000 
0.0010000000 -0.0008461538 -0.0010000000 -7.7887556745 -2.0305287525 7.7887556724 -68781752.0404863060 1.0000000000 
0.0010000000 -0.0006923077 -0.0010000000 -7.8248268097 0.5484944815 7.8248268074 -69181547.4641516209 1.0000000000 
0.0010000000 -0.0005384615 -0.0010000000 -7.7972728455 -0.1517332702 7.7972728431 -68901819.2612628639 1.0000000000 
0.0010000000 -0.0003846154 -0.0010000000 -7.8085264077 0.0429654599 7.8085264053 -69022850.5601365268 1.0000000000 
0.0010000000 -0.0002307692 -0.0010000000 -7.8047104466 -0.0126427485 7.8047104443 -68978583.0153472275 1.0000000000 
0.0010000000 -0.0000769231 -0.0010000000 -7.8056670844 0.0046754643 7.8056670821 -68992811.4549212307 1.0000000000 
0.0010000000 0.0000769231 -0.0010000000 -7.8056670844 -0.0046754643 7.8056670821 -68992811.4549232274 1.0000000000 
0.0010000000 0.0002307692 -0.0010000000 -7.8047104466 0.0126427485 7.8047104443 -68978583.0153379887 1.0000000000 
0.0010000000 0.0003846154 -0.0010000000 -7.8085264076 -0.0429654599 7.8085264054 -69022850.5601533800 1.0000000000 
0.0010000000 0.0005384615 -0.0010000000 -7.7972728457 0.1517332703 7.7972728429 -68901819.2612064481 1.0000000000 
0.0010000000 0.0006923077 -0.0010000000 -7.8248268092 -0.5484944818 7.8248268079 -69181547.4642599970 1.0000000000 
0.0010000000 0.0008461538 -0.0010000000 -7.7887556752 2.0305287540 7.7887556717 -68781752.0403518528 1.0000000000 
0.0008461538 0.0010000000 -0.0010000000 2.0305287540 -7.7887556752 7.7887556717 -68781752.0403550863 1.0000000000 
0.0006923077 0.0010000000 -0.0010000000 -0.5484944818 -7.8248268092 7.8248268079 -69181547.4642661959 1.0000000000 
0.0005384615 0.0010000000 -0.0010000000 0.1517332703 -7.7972728457 7.7972728429 -68901819.2612076104 1.0000000000 
0.0003846154 0.0010000000 -0.0010000000 -0.0429654599 -7.8085264076 7.8085264054 -69022850.5601551682 1.0000000000 
0.0002307692 0.0010000000 -0.0010000000 0.0126427485 -7.8047104466 7.8047104443 -68978583.0153381228 1.0000000000 
0.0000769231 0.0010000000 -0.0010000000 -0.0046754643 -7.8056670844 7.8056670821 -68992811.4549223930 1.0000000000 
-0.0000769231 0.0010000000 -0.0010000000 0.0046754643 -7.8056670844 7.8056670821 -68992811.4549179524 1.0000000000 
-0.0002307692 0.0010000000 -0.0010000000 -0.0126427485 -7.8047104466 7.8047104443 -68978583.0153434277 1.0000000000 
-0.0003846154 0.0010000000 -0.0010000000 0.0429654599 -7.8085264077 7.8085264053 -69022850.5601307303 1.0000000000 
-0.0005384615 0.0010000000 -0.0010000000 -0.1517332702 -7.7972728455 7.7972728431 -68901819.2612573206 1.0000000000 
-0.0006923077 0.0010000000 -0.0010000000 0.5484944815 -7.8248268097 7.8248268074 -69181547.4641424268 1.0000000000 
-0.0008461538 0.0010000000 -0.0010000000 -2.0305287525 -7.7887556746 7.7887556724 -68781752.0404778868 1.0000000000 
-0.0010000000 0.0008461538 -0.0010000000 7.7887556746 2.0305287532 7.7887556746 -68781752.0401418060 1.0000000000 
-0.0010000000 0.0006923077 -0.0010000000 7.8248268112 -0.5484944816 7.8248268112 -69181547.4635387659 1.0000000000 
-0.0010000000 0.0005384615 -0.0010000000 7.7972728461 0.1517332702 7.7972728461 -68901819.2607961446 1.0000000000 
-0.0010000000 0.0003846154 -0.0010000000 7.8085264087 -0.0429654599 7.8085264087 -69022850.5596024841 1.0000000000 
-0.0010000000 0.0002307692 -0.0010000000 7.8047104474 0.0126427485 7.8047104475 -68978583.0148413479 1.0000000000 
-0.0010000000 0.0000769231 -0.0010000000 7.8056670853 -0.0046754643 7.8056670853 -68992811.4544056356 1.0000000000 
-0.0010000000 -0.0000769231 -0.0010000000 7.8056670853 0.0046754643 7.8056670853 -68992811.4544056654 1.0000000000 
-0.0010000000 -0.0002307692 -0.0010000000 7.8047104475 -0.0126427485 7.8047104475 -68978583.0148345232 1.0000000000 
-0.0010000000 -0.0003846154 -0.0010000000 7.8085264086 0.0429654599 7.8085264086 -69022850.5596158355 1.0000000000 
-0.0010000000 -0.0005384615 -0.0010000000 7.7972728463 -0.1517332702 7.7972728463 -68901819.2607417107 1.0000000000 
-0.0010000000 -0.0006923077 -0.0010000000 7.8248268107 0.5484944817 7.8248268108 -69181547.4636565745 1.0000000000 
-0.0010000000 -0.0008461538 -0.0010000000 7.7887556753 -2.0305287533 7.7887556753 -68781752.0399660170 1.0000000000 
-0.0008461538 -0.0010000000 0.0010000000 -2.0305287525 7.7887556724 -7.7887556745 -68781752.0404945165 1.0000000000 
-0.0006923077 -0.0010000000 0.0010000000 0.5484944815 7.8248268074 -7.8248268097 -69181547.4641602039 1.0000000000 
-0.0005384615 -0.0010000000 0.0010000000 -0.1517332702 7.7972728431 -7.7972728455 -68901819.2612717748 1.0000000000 
-0.0003846154 -0.0010000000 0.0010000000 0.0429654599 7.8085264053 -7.8085264077 -69022850.5601446480 1.0000000000 
-0.0002307692 -0.0010000000 0.0010000000 -0.0126427485 7.8047104443 -7.8047104466 -68978583.0153558850 1.0000000000 
-0.0000769231 -0.0010000000 0.0010000000 0.0046754643 7.8056670821 -7.8056670844 -68992811.4549291879 1.0000000000 
0.0000769231 -0.0010000000 0.0010000000 -0.0046754643 7.8056670821 -7.8056670844 -68992811.4549312741 1.0000000000 
0.0002307692 -0.0010000000 0.0010000000 0.0126427485 7.8047104442 -7.8047104466 -68978583.0153462887 1.0000000000 
0.0003846154 -0.0010000000 0.0010000000 -0.0429654599 7.8085264054 -7.8085264076 -69022850.5601611882 1.0000000000 
0.0005384615 -0.0010000000 0.0010000000 0.1517332703 7.7972728429 -7.7972728457 -68901819.2612151802 1.0000000000 
0.0006923077 -0.0010000000 0.0010000000 -0.5484944818 7.8248268079 -7.8248268092 -69181547.4642687738 1.0000000000 
0.0008461538 -0.0010000000 0.0010000000 2.0305287540 7.7887556717 -7.7887556752 -68781752.0403589010 1.0000000000 
0.0010000000 -0.0008461538 0.0010000000 -7.7887556773 -2.0305287518 -7.7887556773 -68781752.0395939350 1.0000000000 
0.0010000000 -0.0006923077 0.0010000000 -7.8248268125 0.5484944813 -7.8248268125 -69181547.4631017298 1.0000000000 
0.0010000000 -0.0005384615 0.0010000000 -7.7972728483 -0.1517332701 -7.7972728483 -68901819.2603014410 1.0000000000 
0.0010000000 -0.0003846154 0.0010000000 -7.8085264105 0.0429654599 -7.8085264105 -69022850.5591370016 1.0000000000 
0.0010000000 -0.0002307692 0.0010000000 -7.8047104494 -0.0126427485 -7.8047104494 -68978583.0143630356 1.0000000000 
0.0010000000 -0.0000769231 0.0010000000 -7.8056670872 0.0046754643 -7.8056670872 -68992811.4539301395 1.0000000000 
0.0010000000 0.0000769231 0.0010000000 -7.8056670872 -0.0046754643 -7.8056670872 -68992811.4539373368 1.0000000000 
0.0010000000 0.0002307692 0.0010000000 -7.8047104494 0.0126427485 -7.8047104494 -68978583.0143407583 1.0000000000 
0.0010000000 0.0003846154 0.0010000000 -7.8085264104 -0.0429654600 -7.8085264104 -69022850.5591916442 1.0000000000 
0.0010000000 0.0005384615 0.0010000000 -7.7972728485 0.1517332703 -7.7972728484 -68901819.2601407468 1.0000000000 
0.0010000000 0.0006923077 0.0010000000 -7.8248268121 -0.5484944820 -7.8248268120 -69181547.4634501338 1.0000000000 
0.0010000000 0.0008461538 0.0010000000 -7.7887556780 2.0305287546 -7.7887556779 -68781752.0391651839 1.0000000000 
0.0008461538 0.0010000000 0.0010000000 2.0305287546 -7.7887556779 -7.7887556779 -68781752.0391700864 1.0000000000 
0.0006923077 0.0010000000 0.0010000000 -0.5484944820 -7.8248268120 -7.8248268120 -69181547.4634578377 1.0000000000 
0.0005384615 0.0010000000 0.0010000000 0.1517332703 -7.7972728485 -7.7972728485 -68901819.2601456940 1.0000000000 
0.0003846154 0.0010000000 0.0010000000 -0.0429654600 -7.8085264104 -7.8085264104 -69022850.5591947734 1.0000000000 
0.0002307692 0.0010000000 0.0010000000 0.0126427485 -7.8047104494 -7.8047104494 -68978583.0143439621 1.0000000000 
0.0000769231 0.0010000000 0.0010000000 -0.0046754643 -7.8056670872 -7.8056670872 -68992811.4539382905 1.0000000000 
-0.0000769231 0.0010000000 0.0010000000 0.0046754643 -7.8056670872 -7.8056670872 -68992811.4539293796 1.0000000000 
-0.0002307692 0.0010000000 0.0010000000 -0.0126427485 -7.8047104494 -7.8047104494 -68978583.0143617690 1.0000000000 
-0.0003846154 0.0010000000 0.0010000000 0.0429654599 -7.8085264105 -7.8085264105 -69022850.5591335148 1.0000000000 
-0.0005384615 0.0010000000 0.0010000000 -0.1517332701 -7.7972728483 -7.7972728483 -68901819.2602984607 1.0000000000 
-0.0006923077 0.0010000000 0.0010000000 0.5484944812 -7.8248268125 -7.8248268125 -69181547.4630943388 1.0000000000 
-0.0008461538 0.0010000000 0.0010000000 -2.0305287518 -7.7887556774 -7.7887556773 -68781752.0395885706 1.0000000000 
-0.0010000000 0.0008461538 0.0010000000 7.7887556717 2.0305287540 -7.7887556752 -68781752.0403621793 1.0000000000 
-0.0010000000 0.0006923077 0.0010000000 7.8248268079 -0.5484944818 -7.8248268092 -69181547.4642746150 1.0000000000 
-0.0010000000 0.0005384615 0.0010000000 7.7972728429 0.1517332703 -7.7972728457 -68901819.2612173706 1.0000000000 
-0.0010000000 0.0003846154 0.0010000000 7.8085264054 -0.0429654599 -7.8085264076 -69022850.5601626635 1.0000000000 
-0.0010000000 0.0002307692 0.0010000000 7.8047104442 0.0126427485 -7.8047104466 -68978583.0153473020 1.0000000000 
-0.0010000000 0.0000769231 0.0010000000 7.8056670821 -0.0046754643 -7.8056670844 -68992811.4549300373 1.0000000000 
-0.0010000000 -0.0000769231 0.0010000000 7.8056670821 0.0046754643 -7.8056670844 -68992811.4549270868 1.0000000000 
-0.0010000000 -0.0002307692 0.0010000000 7.8047104443 -0.0126427485 -7.8047104466 -68978583.0153517127 1.0000000000 
-0.0010000000 -0.0003846154 0.0010000000 7.8085264053 0.0429654599 -7.8085264077 -69022850.5601393729 1.0000000000 
-0.0010000000 -0.0005384615 0.0010000000 7.7972728431 -0.1517332702 -7.7972728455 -68901819.2612662911 1.0000000000 
-0.0010000000 -0.0006923077 0.0010000000 7.8248268074 0.5484944815 -7.8248268097 -69181547.4641505480 1.0000000000 
-0.0010000000 -0.0008461538 0.0010000000 7.7887556724 -2.0305287525 -7.7887556745 -68781752.0404874086 1.0000000000 
-0.0010000000 -0.0010000000 -0.0008461538 7.7887556753 7.7887556752 -2.0305287533 -68781752.0399695635 1.0000000000 
-0.0010000000 -0.0010000000 -0.0006923077 7.8248268108 7.8248268107 0.5484944817 -69181547.4636639357 1.0000000000 
-0.0010000000 -0.0010000000 -0.0005384615 7.7972728463 7.7972728462 -0.1517332702 -68901819.2607460171 1.0000000000 
-0.0010000000 -0.0010000000 -0.0003846154 7.8085264086 7.8085264086 0.0429654599 -69022850.5596195906 1.0000000000 
-0.0010000000 -0.0010000000 -0.0002307692 7.8047104475 7.8047104474 -0.0126427485 -68978583.0148384124 1.0000000000 
-0.0010000000 -0.0010000000 -0.0000769231 7.8056670853 7.8056670853 0.0046754643 -68992811.4544091076 1.0000000000 
-0.0010000000 -0.0010000000 0.0000769231 7.8056670853 7.8056670853 -0.0046754643 -68992811.4544066489 1.0000000000 
-0.0010000000 -0.0010000000 0.0002307692 7.8047104475 7.8047104474 0.0126427485 -68978583.0148435533 1.0000000000 
-0.0010000000 -0.0010000000 0.0003846154 7.8085264087 7.8085264087 -0.0429654599 -69022850.5596018732 1.0000000000 
-0.0010000000 -0.0010000000 0.0005384615 7.7972728461 7.7972728460 0.1517332702 -68901819.2607973963 1.0000000000 
-0.0010000000 -0.0010000000 0.0006923077 7.8248268112 7.8248268112 -0.5484944816 -69181547.4635370374 1.0000000000 
-0.0010000000 -0.0010000000 0.0008461538 7.7887556746 7.7887556746 2.0305287532 -68781752.0401423126 1.0000000000 
0.0010000000 -0.0010000000 -0.0008461538 -7.7887556745 7.7887556724 -2.0305287525 -68781752.0404872447 1.0000000000 
0.0010000000 -0.0010000000 -0.0006923077 -7.8248268097 7.8248268074 0.5484944815 -69181547.4641530365 1.0000000000 
0.0010000000 -0.0010000000 -0.0005384615 -7.7972728455 7.7972728431 -0.1517332702 -68901819.2612649202 1.0000000000 
0.0010000000 -0.0010000000 -0.0003846154 -7.8085264077 7.8085264053 0.0429654599 -69022850.5601387322 1.0000000000 
0.0010000000 -0.0010000000 -0.0002307692 -7.8047104466 7.8047104443 -0.0126427485 -68978583.0153508484 1.0000000000 
0.0010000000 -0.0010000000 -0.0000769231 -7.8056670844 7.8056670821 0.0046754643 -68992811.4549247026 1.0000000000 
0.0010000000 -0.0010000000 0.0000769231 -7.8056670844 7.8056670821 -0.0046754643 -68992811.4549276233 1.0000000000 
0.0010000000 -0.0010000000 0.0002307692 -7.8047104466 7.8047104443 0.0126427485 -68978583.0153430700 1.0000000000 
0.0010000000 -0.0010000000 0.0003846154 -7.8085264076 7.8085264054 -0.0429654599 -69022850.5601589680 1.0000000000 
0.0010000000 -0.0010000000 0.0005384615 -7.7972728456 7.7972728429 0.1517332703 -68901819.2612125278 1.0000000000 
0.0010000000 -0.0010000000 0.0006923077 -7.8248268092 7.8248268079 -0.5484944818 -69181547.4642676860 1.0000000000 
0.0010000000 -0.0010000000 0.0008461538 -7.7887556752 7.7887556717 2.0305287540 -68781752.0403588265 1.0000000000 
0.0010000000 0.0010000000 -0.0008461538 -7.7887556774 -7.7887556773 -2.0305287518 -68781752.0395870805 1.0000000000 
0.0010000000 0.0010000000 -0.0006923077 -7.8248268125 -7.8248268125 0.5484944813 -69181547.4630939960 1.0000000000 
0.0010000000 0.0010000000 -0.0005384615 -7.7972728483 -7.7972728483 -0.1517332701 -68901819.2602955997 1.0000000000 
0.0010000000 0.0010000000 -0.0003846154 -7.8085264105 -7.8085264105 0.0429654599 -69022850.5591311902 1.0000000000 
0.0010000000 0.0010000000 -0.0002307692 -7.8047104494 -7.8047104494 -0.0126427485 -68978583.0143579543 1.0000000000 
0.0010000000 0.0010000000 -0.0000769231 -7.8056670872 -7.8056670872 0.0046754643 -68992811.4539256096 1.0000000000 
0.0010000000 0.0010000000 0.0000769231 -7.8056670872 -7.8056670872 -0.0046754643 -68992811.4539335817 1.0000000000 
0.0010000000 0.0010000000 0.0002307692 -7.8047104494 -7.8047104494 0.0126427485 -68978583.0143374056 1.0000000000 
0.0010000000 0.0010000000 0.0003846154 -7.8085264104 -7.8085264104 -0.0429654600 -69022850.5591892749 1.0000000000 
0.0010000000 0.0010000000 0.0005384615 -7.7972728485 -7.7972728484 0.1517332703 -68901819.2601390332 1.0000000000 
0.0010000000 0.0010000000 0.0006923077 -7.8248268121 -7.8248268120 -0.5484944820 -69181547.4634486139 1.0000000000 
0.0010000000 0.0010000000 0.0008461538 -7.7887556780 -7.7887556779 2.0305287546 -68781752.0391648561 1.0000000000 
-0.0010000000 0.0010000000 -0.0008461538 7.7887556724 -7.7887556746 -2.0305287525 -68781752.0404873788 1.0000000000 
-0.0010000000 0.0010000000 -0.0006923077 7.8248268073 -7.8248268097 0.5484944815 -69181547.4641524553 1.0000000000 
-0.0010000000 0.0010000000 -0.0005384615 7.7972728431 -7.7972728455 -0.1517332702 -68901819.2612645775 1.0000000000 
-0.0010000000 0.0010000000 -0.0003846154 7.8085264053 -7.8085264077 0.0429654599 -69022850.5601380467 1.0000000000 
-0.0010000000 0.0010000000 -0.0002307692 7.8047104442 -7.8047104466 -0.0126427485 -68978583.0153514445 1.0000000000 
-0.0010000000 0.0010000000 -0.0000769231 7.8056670820 -7.8056670844 0.0046754643 -68992811.4549236298 1.0000000000 
-0.0010000000 0.0010000000 0.0000769231 7.8056670821 -7.8056670844 -0.0046754643 -68992811.4549276978 1.0000000000 
-0.0010000000 0.0010000000 0.0002307692 7.8047104442 -7.8047104466 0.0126427485 -68978583.0153429061 1.0000000000 
-0.0010000000 0.0010000000 0.0003846154 7.8085264054 -7.8085264076 -0.0429654599 -69022850.5601586848 1.0000000000 
-0.0010000000 0.0010000000 0.0005384615 7.7972728429 -7.7972728457 0.1517332703 -68901819.2612131536 1.0000000000 
-0.0010000000 0.0010000000 0.0006923077 7.8248268079 -7.8248268092 -0.5484944818 -69181547.4642667174 1.0000000000 
-0.0010000000 0.0010000000 0.0008461538 7.7887556717 -7.7887556752 2.0305287540 -68781752.0403589010 1.0000000000 
-0.0008461538 -0.0008461538 -0.0010000000 -2.0537379924 -2.0537379924 7.8592683139 -69712637.4855446219 1.0000000000 
-0.0008461538 -0.0006923077 -0.0010000000 -2.0488226105 0.5551715490 7.9041369047 -70103146.8015400171 1.0000000000 
-0.0008461538 -0.0005384615 -0.0010000000 -2.0450954476 -0.1529778073 7.8728459574 -69855919.2589340210 1.0000000000 
-0.0008461538 -0.0003846154 -0.0010000000 -2.0454335528 0.0430047165 7.8849814733 -69962252.4634796679 1.0000000000 
-0.0008461538 -0.0002307692 -0.0010000000 -2.0460263487 -0.0125840313 7.8815165760 -69922166.8791371733 1.0000000000 
-0.0008461538 -0.0000769231 -0.0010000000 -2.0453946110 0.0045830175 7.8825251734 -69934040.2307119519 1.0000000000 
-0.0008461538 0.0000769231 -0.0010000000 -2.0453946110 -0.0045830175 7.8825251734 -69934040.2307089269 1.0000000000 
-0.0008461538 0.0002307692 -0.0010000000 -2.0460263487 0.0125840313 7.8815165760 -69922166.8791420460 1.0000000000 
-0.0008461538 0.0003846154 -0.0010000000 -2.0454335528 -0.0430047165 7.8849814734 -69962252.4634684026 1.0000000000 
-0.0008461538 0.0005384615 -0.0010000000 -2.0450954475 0.1529778073 7.8728459572 -69855919.2589692175 1.0000000000 
-0.0008461538 0.0006923077 -0.0010000000 -2.0488226106 -0.5551715490 7.9041369052 -70103146.8014539033 1.0000000000 
-0.0008461538 0.0008461538 -0.0010000000 -2.0537379922 2.0537379922 7.8592683132 -69712637.4856631905 1.0000000000 
-0.0006923077 -0.0008461538 -0.0010000000 0.5551715490 -2.0488226105 7.9041369047 -70103146.8015417606 1.0000000000 
-0.0006923077 -0.0006923077 -0.0010000000 0.5663206108 0.5663206108 5.3637917101 -71189063.6207701266 1.0000000000 
-0.0006923077 -0.0005384615 -0.0010000000 0.5587988144 -0.1580098028 6.5334674007 -70702414.8064577878 1.0000000000 
-0.0006923077 -0.0003846154 -0.0010000000 0.5655089297 0.0466870637 5.7053477050 -70993866.0061872303 1.0000000000 
-0.0006923077 -0.0002307692 -0.0010000000 0.5606619543 -0.0156698154 6.2181231767 -70836401.0745873004 1.0000000000 
-0.0006923077 -0.0000769231 -0.0010000000 0.5626605418 0.0075037531 5.9871624483 -70906856.8635399342 1.0000000000 
-0.0006923077 0.0000769231 -0.0010000000 0.5626605418 -0.0075037531 5.9871624485 -70906856.8635178655 1.0000000000 
-0.0006923077 0.0002307692 -0.0010000000 0.5606619543 0.0156698154 6.2181231765 -70836401.0746153891 1.0000000000 
-0.0006923077 0.0003846154 -0.0010000000 0.5655089297 -0.0466870637 5.7053477053 -70993866.0061475337 1.0000000000 
-0.0006923077 0.0005384615 -0.0010000000 0.5587988144 0.1580098027 6.5334674003 -70702414.8065211177 1.0000000000 
-0.0006923077 0.0006923077 -0.0010000000 0.5663206108 -0.5663206107 5.3637917109 -71189063.6206562817 1.0000000000 
-0.0006923077 0.0008461538 -0.0010000000 0.5551715490 2.0488226102 7.9041369051 -70103146.8015154451 1.0000000000 
-0.0005384615 -0.0008461538 -0.0010000000 -0.1529778073 -2.0450954476 7.8728459574 -69855919.2589321136 1.0000000000 
-0.0005384615 -0.0006923077 -0.0010000000 -0.1580098028 0.5587988144 6.5334674008 -70702414.8064570129 1.0000000000 
-0.0005384615 -0.0005384615 -0.0010000000 -0.1552646596 -0.1552646596 7.4504978914 -70213136.1586588472 1.0000000000 
-0.0005384615 -0.0003846154 -0.0010000000 -0.1612409715 0.0454409132 6.7819938830 -70529882.1903731674 1.0000000000 
-0.0005384615 -0.0002307692 -0.0010000000 -0.1585830604 -0.0168411727 7.2909896348 -70312220.6002528071 1.0000000000 
-0.0005384615 -0.0000769231 -0.0010000000 -0.1609500669 0.0081236680 7.0867029648 -70388224.3780113608 1.0000000000 
-0.0005384615 0.0000769231 -0.0010000000 -0.1609500669 -0.0081236680 7.0867029649 -70388224.3779903352 1.0000000000 
-0.0005384615 0.0002307692 -0.0010000000 -0.1585830604 0.0168411727 7.2909896346 -70312220.6002795994 1.0000000000 
-0.0005384615 0.0003846154 -0.0010000000 -0.1612409715 -0.0454409132 6.7819938832 -70529882.1903458983 1.0000000000 
-0.0005384615 0.0005384615 -0.0010000000 -0.1552646595 0.1552646595 7.4504978911 -70213136.1587100029 1.0000000000 
-0.0005384615 0.0006923077 -0.0010000000 -0.1580098028 -0.5587988144 6.5334674013 -70702414.8063684851 1.0000000000 
-0.0005384615 0.0008461538 -0.0010000000 -0.1529778073 2.0450954474 7.8728459573 -69855919.2589746416 1.0000000000 
-0.0003846154 -0.0008461538 -0.0010000000 0.0430047165 -2.0454335528 7.8849814733 -69962252.4634801447 1.0000000000 
-0.0003846154 -0.0006923077 -0.0010000000 0.0466870637 0.5655089297 5.7053477050 -70993866.0061875582 1.0000000000 
-0.0003846154 -0.0005384615 -0.0010000000 0.0454409132 -0.1612409715 6.7819938830 -70529882.1903745234 1.0000000000 
-0.0003846154 -0.0003846154 -0.0010000000 0.0442203806 0.0442203806 6.3092964103 -70632493.6660003960 1.0000000000 
-0.0003846154 -0.0002307692 -0.0010000000 0.0456708265 -0.0137446680 6.7098371510 -70549235.9324355721 1.0000000000 
-0.0003846154 -0.0000769231 -0.0010000000 0.0490040482 0.0053700830 6.5421893088 -70577747.0474120975 1.0000000000 
-0.0003846154 0.0000769231 -0.0010000000 0.0490040482 -0.0053700830 6.5421893089 -70577747.0473944545 1.0000000000 
-0.0003846154 0.0002307692 -0.0010000000 0.0456708265 0.0137446680 6.7098371508 -70549235.9324572682 1.0000000000 
-0.0003846154 0.0003846154 -0.0010000000 0.0442203806 -0.0442203806 6.3092964105 -70632493.6659704447 1.0000000000 
-0.0003846154 0.0005384615 -0.0010000000 0.0454409132 0.1612409715 6.7819938825 -70529882.1904471368 1.0000000000 
-0.0003846154 0.0006923077 -0.0010000000 0.0466870637 -0.5655089296 5.7053477058 -70993866.0060731024 1.0000000000 
-0.0003846154 0.0008461538 -0.0010000000 0.0430047165 2.0454335526 7.8849814735 -69962252.4634817988 1.0000000000 
-0.0002307692 -0.0008461538 -0.0010000000 -0.0125840313 -2.0460263487 7.8815165760 -69922166.8791365027 1.0000000000 
-0.0002307692 -0.0006923077 -0.0010000000 -0.0156698154 0.5606619543 6.2181231767 -70836401.0745867789 1.0000000000 
-0.0002307692 -0.0005384615 -0.0010000000 -0.0168411727 -0.1585830604 7.2909896348 -70312220.6002528518 1.0000000000 
-0.0002307692 -0.0003846154 -0.0010000000 -0.0137446680 0.0456708265 6.7098371510 -70549235.9324344397 1.0000000000 
-0.0002307692 -0.0002307692 -0.0010000000 -0.0129683939 -0.0129683939 7.2377008022 -70426747.8813998401 1.0000000000 
-0.0002307692 -0.0000769231 -0.0010000000 -0.0156324889 0.0096906370 7.0394767163 -70586111.2535623759 1.0000000000 
-0.0002307692 0.0000769231 -0.0010000000 -0.0156324889 -0.0096906370 7.0394767165 -70586111.2535455227 1.0000000000 
-0.0002307692 0.0002307692 -0.0010000000 -0.0129683939 0.0129683939 7.2377008020 -70426747.8814252764 1.0000000000 
-0.0002307692 0.0003846154 -0.0010000000 -0.0137446680 -0.0456708265 6.7098371512 -70549235.9324079156 1.0000000000 
-0.0002307692 0.0005384615 -0.0010000000 -0.0168411727 0.1585830604 7.2909896344 -70312220.6003167629 1.0000000000 
-0.0002307692 0.0006923077 -0.0010000000 -0.0156698154 -0.5606619543 6.2181231773 -70836401.0744922608 1.0000000000 
-0.0002307692 0.0008461538 -0.0010000000 -0.0125840313 2.0460263485 7.8815165760 -69922166.8791611791 1.0000000000 
-0.0000769231 -0.0008461538 -0.0010000000 0.0045830175 -2.0453946110 7.8825251734 -69934040.2307108790 1.0000000000 
-0.0000769231 -0.0006923077 -0.0010000000 0.0075037531 0.5626605418 5.9871624483 -70906856.8635407239 1.0000000000 
-0.0000769231 -0.0005384615 -0.0010000000 0.0081236680 -0.1609500669 7.0867029648 -70388224.3780121654 1.0000000000 
-0.0000769231 -0.0003846154 -0.0010000000 0.0053700830 0.0490040482 6.5421893088 -70577747.0474119782 1.0000000000 
-0.0000769231 -0.0002307692 -0.0010000000 0.0096906370 -0.0156324889 7.0394767163 -70586111.2535639405 1.0000000000 
-0.0000769231 -0.0000769231 -0.0010000000 -0.0026108470 -0.0026108470 6.9508592440 -70408994.5109200776 1.0000000000 
-0.0000769231 0.0000769231 -0.0010000000 -0.0026108470 0.0026108470 6.9508592441 -70408994.5109052658 1.0000000000 
-0.0000769231 0.0002307692 -0.0010000000 0.0096906370 0.0156324889 7.0394767161 -70586111.2535890341 1.0000000000 
-0.0000769231 0.0003846154 -0.0010000000 0.0053700830 -0.0490040482 6.5421893090 -70577747.0473825634 1.0000000000 
-0.0000769231 0.0005384615 -0.0010000000 0.0081236680 0.1609500669 7.0867029643 -70388224.3780805767 1.0000000000 
-0.0000769231 0.0006923077 -0.0010000000 0.0075037531 -0.5626605418 5.9871624490 -70906856.8634372652 1.0000000000 
-0.0000769231 0.0008461538 -0.0010000000 0.0045830175 2.0453946108 7.8825251735 -69934040.2307252884 1.0000000000 
0.0000769231 -0.0008461538 -0.0010000000 -0.0045830175 -2.0453946110 7.8825251734 -69934040.2307082862 1.0000000000 
0.0000769231 -0.0006923077 -0.0010000000 -0.0075037531 0.5626605418 5.9871624485 -70906856.8635176867 1.0000000000 
0.0000769231 -0.0005384615 -0.0010000000 -0.0081236680 -0.1609500669 7.0867029649 -70388224.3779888153 1.0000000000 
0.0000769231 -0.0003846154 -0.0010000000 -0.0053700830 0.0490040482 6.5421893090 -70577747.0473946035 1.0000000000 
0.0000769231 -0.0002307692 -0.0010000000 -0.0096906370 -0.0156324889 7.0394767165 -70586111.2535441071 1.0000000000 
0.0000769231 -0.0000769231 -0.0010000000 0.0026108470 -0.0026108470 6.9508592441 -70408994.5109058768 1.0000000000 
0.0000769231 0.0000769231 -0.0010000000 0.0026108470 0.0026108470 6.9508592443 -70408994.5108908713 1.0000000000 
0.0000769231 0.0002307692 -0.0010000000 -0.0096906370 0.0156324889 7.0394767163 -70586111.2535724938 1.0000000000 
0.0000769231 0.0003846154 -0.0010000000 -0.0053700830 -0.0490040482 6.5421893092 -70577747.0473639965 1.0000000000 
0.0000769231 0.0005384615 -0.0010000000 -0.0081236680 0.1609500669 7.0867029644 -70388224.3780608326 1.0000000000 
0.0000769231 0.0006923077 -0.0010000000 -0.0075037531 -0.5626605417 5.9871624492 -70906856.8634140193 1.0000000000 
0.0000769231 0.0008461538 -0.0010000000 -0.0045830175 2.0453946108 7.8825251735 -69934040.2307244837 1.0000000000 
0.0002307692 -0.0008461538 -0.0010000000 0.0125840313 -2.0460263487 7.8815165760 -69922166.8791409284 1.0000000000 
0.0002307692 -0.0006923077 -0.0010000000 0.0156698154 0.5606619543 6.2181231765 -70836401.0746158361 1.0000000000 
0.0002307692 -0.0005384615 -0.0010000000 0.0168411727 -0.1585830604 7.2909896346 -70312220.6002805233 1.0000000000 
0.0002307692 -0.0003846154 -0.0010000000 0.0137446680 0.0456708265 6.7098371508 -70549235.9324579835 1.0000000000 
0.0002307692 -0.0002307692 -0.0010000000 0.0129683939 -0.0129683939 7.2377008020 -70426747.8814251423 1.0000000000 
0.0002307692 -0.0000769231 -0.0010000000 0.0156324889 0.0096906370 7.0394767161 -70586111.2535896897 1.0000000000 
0.0002307692 0.0000769231 -0.0010000000 0.0156324889 -0.0096906370 7.0394767163 -70586111.2535707057 1.0000000000 
0.0002307692 0.0002307692 -0.0010000000 0.0129683939 0.0129683939 7.2377008018 -70426747.8814499676 1.0000000000 
0.0002307692 0.0003846154 -0.0010000000 0.0137446680 -0.0456708265 6.7098371510 -70549235.9324305952 1.0000000000 
0.0002307692 0.0005384615 -0.0010000000 0.0168411727 0.1585830604 7.2909896342 -70312220.6003423929 1.0000000000 
0.0002307692 0.0006923077 -0.0010000000 0.0156698154 -0.5606619543 6.2181231771 -70836401.0745231211 1.0000000000 
0.0002307692 0.0008461538 -0.0010000000 0.0125840313 2.0460263485 7.8815165760 -69922166.8791625053 1.0000000000 
0.0003846154 -0.0008461538 -0.0010000000 -0.0430047165 -2.0454335528 7.8849814734 -69962252.4634662867 1.0000000000 
0.0003846154 -0.0006923077 -0.0010000000 -0.0466870637 0.5655089297 5.7053477053 -70993866.0061482489 1.0000000000 
0.0003846154 -0.0005384615 -0.0010000000 -0.0454409132 -0.1612409715 6.7819938832 -70529882.1903431863 1.0000000000 
0.0003846154 -0.0003846154 -0.0010000000 -0.0442203806 0.0442203806 6.3092964105 -70632493.6659706235 1.0000000000 
0.0003846154 -0.0002307692 -0.0010000000 -0.0456708265 -0.0137446680 6.7098371512 -70549235.9324062765 1.0000000000 
0.0003846154 -0.0000769231 -0.0010000000 -0.0490040482 0.0053700830 6.5421893090 -70577747.0473834872 1.0000000000 
0.0003846154 0.0000769231 -0.0010000000 -0.0490040482 -0.0053700830 6.5421893092 -70577747.0473637432 1.0000000000 
0.0003846154 0.0002307692 -0.0010000000 -0.0456708265 0.0137446680 6.7098371510 -70549235.9324320555 1.0000000000 