 TITLE = "velocity plot"
 VARIABLES = "X", "Y", "Z", "U", "V", "W", "p", "vapFrac"
 ZONE SOLUTIONTIME=0.000000, NODES=2744 , ELEMENTS=2197, DATAPACKING=POINT, ZONETYPE=FEBRICK
-0.0010000000 -0.0010000000 -0.0010000000 11148926.1041614730 10943917.6242967881 11025565.3647342622 -14456398709457788.0000000000 1.0000000000 
0.0010000000 -0.0010000000 -0.0010000000 -10754498.2817222849 11260858.3897701595 11138622.9926056862 -14453900205956104.0000000000 1.0000000000 
0.0010000000 0.0010000000 -0.0010000000 -11268009.8565078061 -11054944.2325591333 10838916.0697474163 -14453007087842646.0000000000 1.0000000000 
-0.0010000000 0.0010000000 -0.0010000000 11048247.2331144102 -10959393.2468808200 11146357.0119888652 -14453900972827156.0000000000 1.0000000000 
-0.0010000000 -0.0010000000 0.0010000000 11233038.7256122716 11042721.7810673509 -10878057.1747540049 -14453928901967908.0000000000 1.0000000000 
0.0010000000 -0.0010000000 0.0010000000 -11083454.3257697057 10900524.8401495311 -11177704.6326800305 -14453035918985228.0000000000 1.0000000000 
0.0010000000 0.0010000000 0.0010000000 -11152335.1290838365 -10969997.8152451646 -11031481.3971189149 -14452829020445828.0000000000 1.0000000000 
-0.0010000000 0.0010000000 0.0010000000 10718623.5322329961 -11273310.7907503936 -11169783.1131477710 -14453033561630862.0000000000 1.0000000000 
-0.0008461538 -0.0010000000 -0.0010000000 24080695.6973112524 80463054.3709951192 80565958.0561667532 15136835987637756.0000000000 1.0000000000 
-0.0006923077 -0.0010000000 -0.0010000000 74891563.5153150409 44382325.4763889760 44271714.5165658966 6961316120763020.0000000000 0.9997876858 
-0.0005384615 -0.0010000000 -0.0010000000 74010768.7812204659 44602834.1787273362 44572689.4116715789 2300128077769055.5000000000 1.0000000000 
-0.0003846154 -0.0010000000 -0.0010000000 62644210.6209228262 29740738.2541150488 29710512.3387809247 -8936023085393993.0000000000 1.0000000000 
-0.0002307692 -0.0010000000 -0.0010000000 60546205.9530485570 74365366.4794126004 74316322.3768688142 -12651491767671052.0000000000 1.0000000000 
-0.0000769231 -0.0010000000 -0.0010000000 80032664.1104437113 -17120995.1766951382 -17113193.2397683449 2166864092696106.5000000000 1.0000000000 
0.0000769231 -0.0010000000 -0.0010000000 -79995836.1296555102 -17111064.5123294480 -17110761.7962216921 2166004775960853.0000000000 1.0000000000 
0.0002307692 -0.0010000000 -0.0010000000 -60541623.1148819700 74323937.4043079019 74362638.2454374582 -12657428708071116.0000000000 1.0000000000 
0.0003846154 -0.0010000000 -0.0010000000 -62628411.7227044776 29728896.1767447144 29760240.8378110826 -8950523312214122.0000000000 1.0000000000 
0.0005384615 -0.0010000000 -0.0010000000 -73972581.3869874477 44606023.4121061638 44631645.8986650854 2302486768441847.5000000000 1.0000000000 
0.0006923077 -0.0010000000 -0.0010000000 -74832556.8886944652 44323363.1263266355 44420546.0692608505 6958083096188110.0000000000 0.9997876194 
0.0008461538 -0.0010000000 -0.0010000000 -23997305.5781920850 80641729.5386977047 80528917.5227973163 15136963948603460.0000000000 1.0000000000 
0.0010000000 -0.0008461538 -0.0010000000 -80409849.4438949227 24118904.5046567395 80611424.4519828260 15142639226281472.0000000000 1.0000000000 
0.0010000000 -0.0006923077 -0.0010000000 -44370023.2197631970 74921519.1811760068 44289073.7166947350 6947478011494286.0000000000 0.9997877135 
0.0010000000 -0.0005384615 -0.0010000000 -44588099.4359518960 74021505.2675883025 44593607.8455098048 2311794524760293.0000000000 1.0000000000 
0.0010000000 -0.0003846154 -0.0010000000 -29739330.0979036540 62656508.5732245371 29710437.5029588453 -8941839700132894.0000000000 1.0000000000 
0.0010000000 -0.0002307692 -0.0010000000 -74371932.0621132404 60554855.1950739101 74319652.6538304389 -12645354843879528.0000000000 1.0000000000 
0.0010000000 -0.0000769231 -0.0010000000 17097124.7742841505 80044420.7413609475 -17092672.5600980558 2167723781095787.5000000000 1.0000000000 
0.0010000000 0.0000769231 -0.0010000000 17106450.2420282103 -79980526.1356101483 -17102675.7350782119 2162091867095855.2500000000 1.0000000000 
0.0010000000 0.0002307692 -0.0010000000 -74312358.5529933870 -60532500.5793918222 74389923.1979479641 -12649255399274246.0000000000 1.0000000000 
0.0010000000 0.0003846154 -0.0010000000 -29709620.8151310124 -62612264.9943905026 29765297.3645915985 -8959327521738220.0000000000 1.0000000000 
0.0010000000 0.0005384615 -0.0010000000 -44584658.9094728529 -73977043.8738052696 44606064.0034748167 2321112914216976.5000000000 1.0000000000 
0.0010000000 0.0006923077 -0.0010000000 -44305458.3483849987 -74853129.2314245701 44419677.4317346215 6945041468567262.0000000000 0.9997877254 
0.0010000000 0.0008461538 -0.0010000000 -80633144.0096496642 -24076233.9690516777 80439435.5126964450 15155505470831648.0000000000 1.0000000000 
0.0008461538 0.0010000000 -0.0010000000 -24120233.8372698501 -80492525.3768093884 80524039.7122912258 15140719143135310.0000000000 1.0000000000 
0.0006923077 0.0010000000 -0.0010000000 -74911598.6579991281 -44391415.8880351931 44290280.1880123690 6944824753394796.0000000000 0.9997877070 
0.0005384615 0.0010000000 -0.0010000000 -74012299.2942560911 -44617681.7251560614 44581117.6618265659 2312767575783205.5000000000 1.0000000000 
0.0003846154 0.0010000000 -0.0010000000 -62645324.7192493230 -29734774.2886219583 29725347.4037836529 -8945552701015100.0000000000 1.0000000000 
0.0002307692 0.0010000000 -0.0010000000 -60547087.5653971583 -74359701.9078826159 74347544.8178812265 -12647035780808020.0000000000 1.0000000000 
0.0000769231 0.0010000000 -0.0010000000 -80036715.3274306208 17099561.6204978041 -17090482.4420267753 2168793723639415.5000000000 1.0000000000 
-0.0000769231 0.0010000000 -0.0010000000 79988240.4229367375 17101977.5221636146 -17106953.9475218952 2161027742249764.2500000000 1.0000000000 
-0.0002307692 0.0010000000 -0.0010000000 60540270.3960059136 -74322585.7867272198 74363986.8514199108 -12647583695858568.0000000000 1.0000000000 
-0.0003846154 0.0010000000 -0.0010000000 62623419.9349917099 -29714861.4317927994 29749629.4891070202 -8955616397954850.0000000000 1.0000000000 
-0.0005384615 0.0010000000 -0.0010000000 73986262.2403640896 -44554515.4485189468 44619066.8867103681 2320146023219512.0000000000 1.0000000000 
-0.0006923077 0.0010000000 -0.0010000000 74863124.4563802034 -44281150.7363957018 44421251.2338085994 6947667851622086.0000000000 0.9997877322 
-0.0008461538 0.0010000000 -0.0010000000 24075011.3683171719 -80548574.2619085908 80528608.0756814927 15157472070627850.0000000000 1.0000000000 
-0.0010000000 0.0008461538 -0.0010000000 80497748.1837597787 -24039663.4746790007 80618973.4867431223 15122724406923196.0000000000 1.0000000000 
-0.0010000000 0.0006923077 -0.0010000000 44414974.0090668872 -74888730.5384624153 44287308.2308690399 6957867505262378.0000000000 0.9997876014 
-0.0010000000 0.0005384615 -0.0010000000 44639838.1328327209 -74006490.9697252363 44605632.3189201728 2294476225410063.0000000000 1.0000000000 
-0.0010000000 0.0003846154 -0.0010000000 29755258.4530757628 -62660192.6494027674 29719706.8611450158 -8937316432249875.0000000000 1.0000000000 
-0.0010000000 0.0002307692 -0.0010000000 74373119.3911573738 -60555630.6879646406 74318303.8508079946 -12655290603831672.0000000000 1.0000000000 
-0.0010000000 0.0000769231 -0.0010000000 -17105091.1985426582 -80049853.4273010045 -17098320.4259720631 2172433322662150.2500000000 1.0000000000 
-0.0010000000 -0.0000769231 -0.0010000000 -17125769.9898144752 79978637.8629731685 -17126812.1237314530 2160437363809289.2500000000 1.0000000000 
-0.0010000000 -0.0002307692 -0.0010000000 74314357.5523622632 60532184.4565792531 74362551.8902295828 -12653644713322448.0000000000 1.0000000000 
-0.0010000000 -0.0003846154 -0.0010000000 29714354.4986047447 62612403.4332496151 29751116.5150009394 -8949221286606807.0000000000 1.0000000000 
-0.0010000000 -0.0005384615 -0.0010000000 44568014.1362714842 73976842.5077377707 44599741.8348605409 2308136475607663.0000000000 1.0000000000 
-0.0010000000 -0.0006923077 -0.0010000000 44288506.5632918552 74835349.2268324494 44407160.4013034999 6961553697128271.0000000000 0.9997877039 
-0.0010000000 -0.0008461538 -0.0010000000 80605221.6478499472 24038286.5657416247 80477769.7904104888 15151070842105960.0000000000 1.0000000000 
-0.0008461538 -0.0010000000 0.0010000000 24112082.0364222974 80503212.4020128995 -80526556.8496108353 15143751959691090.0000000000 1.0000000000 
-0.0006923077 -0.0010000000 0.0010000000 74915592.7043169141 44394590.3201792836 -44267757.8470719382 6948040962777780.0000000000 0.9997877151 
-0.0005384615 -0.0010000000 0.0010000000 74017891.5875793248 44621252.5512761325 -44560483.8556713760 2312133118571312.5000000000 1.0000000000 
-0.0003846154 -0.0010000000 0.0010000000 62653721.8052805588 29743932.8022627980 -29707424.7719913572 -8942428806398334.0000000000 1.0000000000 
-0.0002307692 -0.0010000000 0.0010000000 60553846.5780826360 74360636.7687093914 -74330306.5045071095 -12645694801188624.0000000000 1.0000000000 
-0.0000769231 -0.0010000000 0.0010000000 80039218.6112327725 -17093518.6172957532 17098666.6993908510 2167378064577796.7500000000 1.0000000000 
0.0000769231 -0.0010000000 0.0010000000 -79985741.1805602312 -17094721.4225234017 17111764.0371692441 2162450911065773.2500000000 1.0000000000 
0.0002307692 -0.0010000000 0.0010000000 -60533259.0027431399 74340797.2744347751 -74362505.8713527173 -12648932436089536.0000000000 1.0000000000 
0.0003846154 -0.0010000000 0.0010000000 -62614851.2762619331 29733483.6051093340 -29740258.7540033720 -8958705713921264.0000000000 1.0000000000 
0.0005384615 -0.0010000000 0.0010000000 -73980419.4005870223 44575267.9927488714 -44615676.5758981109 2320777204412608.5000000000 1.0000000000 
0.0006923077 -0.0010000000 0.0010000000 -74858841.5765672326 44303228.6610859931 -44418832.6987315714 6944466626995579.0000000000 0.9997877238 
0.0008461538 -0.0010000000 0.0010000000 -24083177.2683271877 80539570.7944161743 -80524169.8544393927 15154409878421076.0000000000 1.0000000000 
0.0010000000 -0.0008461538 0.0010000000 -80509162.5180997252 24028970.6203582957 -80629524.1805358678 15126142770204972.0000000000 1.0000000000 
0.0010000000 -0.0006923077 0.0010000000 -44403057.3810221329 74901068.2072079182 -44275483.4643765315 6960399185374318.0000000000 0.9997876174 
0.0010000000 -0.0005384615 0.0010000000 -44625800.5898923352 74022008.4064504504 -44591767.3199463785 2294988314511960.0000000000 1.0000000000 
0.0010000000 -0.0003846154 0.0010000000 -29741620.2094957754 62677206.8804699183 -29706393.1404305473 -8935838065188808.0000000000 1.0000000000 
0.0010000000 -0.0002307692 0.0010000000 -74357330.5273581594 60572864.5340402573 -74302796.9107787758 -12652782234553028.0000000000 1.0000000000 
0.0010000000 -0.0000769231 0.0010000000 17111832.1950916722 80052596.6802357733 17105225.8604691811 2170121174173948.0000000000 1.0000000000 
0.0010000000 0.0000769231 0.0010000000 17131606.1882348284 -79977660.9976569414 17132353.2022039145 2160894633684518.7500000000 1.0000000000 
0.0010000000 0.0002307692 0.0010000000 -74316548.7323361933 -60535677.1151445806 -74364778.6171124876 -12654175641066854.0000000000 1.0000000000 
0.0010000000 0.0003846154 0.0010000000 -29709687.1707662642 -62611857.9315810055 -29746722.6782316081 -8955199331620790.0000000000 1.0000000000 
0.0010000000 0.0005384615 0.0010000000 -44571448.2560800761 -73981332.3721074611 -44603426.2228360176 2310746709625854.0000000000 1.0000000000 
0.0010000000 0.0006923077 0.0010000000 -44297537.8308174312 -74840151.5593662709 -44416582.2345394865 6956480722327954.0000000000 0.9997877045 
0.0010000000 0.0008461538 0.0010000000 -80598991.4747542739 -24049652.5129538216 -80472775.5703526586 15147382475767280.0000000000 1.0000000000 
0.0008461538 0.0010000000 0.0010000000 -24085029.3374083526 -80464910.0154266506 -80561621.4502740651 15132850198101622.0000000000 1.0000000000 
0.0006923077 0.0010000000 0.0010000000 -74894330.6414549500 -44391196.6933328137 -44280226.3190960065 6957459384079375.0000000000 0.9997876868 
0.0005384615 0.0010000000 0.0010000000 -74014045.7358155698 -44606954.8687882870 -44577007.9611535445 2301933734263104.0000000000 1.0000000000 
0.0003846154 0.0010000000 0.0010000000 -62643823.7918700725 -29735998.7608545199 -29706537.6186248139 -8940787831969001.0000000000 1.0000000000 
0.0002307692 0.0010000000 0.0010000000 -60550423.6843055487 -74366673.4928354621 -74318553.3952269107 -12652360744568962.0000000000 1.0000000000 
0.0000769231 0.0010000000 0.0010000000 -80030604.6003329903 17127177.0552297495 17120392.4747546501 2167785206447628.5000000000 1.0000000000 
-0.0000769231 0.0010000000 0.0010000000 79999694.8974360079 17117496.0586603098 17116049.0945817530 2163241570087141.5000000000 1.0000000000 
-0.0002307692 0.0010000000 0.0010000000 60558112.5806936845 -74309077.8481235653 -74347175.3075134605 -12654631485924416.0000000000 1.0000000000 
-0.0003846154 0.0010000000 0.0010000000 62645206.3164168969 -29715346.3119549491 -29746541.9305455349 -8950245364250828.0000000000 1.0000000000 
-0.0005384615 0.0010000000 0.0010000000 73989303.3084985018 -44591322.7228197679 -44617200.7686187774 2303783732746472.5000000000 1.0000000000 
-0.0006923077 0.0010000000 0.0010000000 74846944.5214797109 -44311575.8359110132 -44409581.5489095226 6959405557092206.0000000000 0.9997876353 
-0.0008461538 0.0010000000 0.0010000000 23993734.7656302415 -80645019.5589158237 -80538771.3231100589 15140684551023020.0000000000 1.0000000000 
-0.0010000000 0.0008461538 0.0010000000 80409001.1355041713 -24120028.8109893687 -80607611.0583201349 15139276518926420.0000000000 1.0000000000 
-0.0010000000 0.0006923077 0.0010000000 44391949.6387683079 -74915202.7649664581 -44285792.5684310198 6945488167900947.0000000000 0.9997877053 
-0.0010000000 0.0005384615 0.0010000000 44609503.8258364350 -74014465.6747904569 -44590885.9573277533 2311628066123665.0000000000 1.0000000000 
-0.0010000000 0.0003846154 0.0010000000 29757822.2473983727 -62648120.3906238973 -29701540.7919544503 -8943724809490202.0000000000 1.0000000000 
-0.0010000000 0.0002307692 0.0010000000 74389260.5981400013 -60548583.9553055167 -74318168.3086225837 -12647029174206208.0000000000 1.0000000000 
-0.0010000000 0.0000769231 0.0010000000 -17090251.8812725358 -80040834.7521358281 17099093.3375499099 2169606595050884.0000000000 1.0000000000 
-0.0010000000 -0.0000769231 0.0010000000 -17100040.1060225852 79984128.8109228313 17109268.0189205520 2160220326207278.5000000000 1.0000000000 
-0.0010000000 -0.0002307692 0.0010000000 74314213.9303515404 60538516.1441411451 -74372688.8398502171 -12647607684670964.0000000000 1.0000000000 
-0.0010000000 -0.0003846154 0.0010000000 29718903.2017827518 62620462.8144693226 -29746926.8741428107 -8957403663442042.0000000000 1.0000000000 
-0.0010000000 -0.0005384615 0.0010000000 44587584.9654742479 73983830.9592848867 -44584798.1854195967 2321268457479734.0000000000 1.0000000000 
-0.0010000000 -0.0006923077 0.0010000000 44308832.5838218033 74859150.2068530023 -44397962.6305913031 6947051130902832.0000000000 0.9997877336 
-0.0010000000 -0.0008461538 0.0010000000 80635698.1913721859 24075127.5141856894 -80441333.0376183391 15158838775665528.0000000000 1.0000000000 
-0.0010000000 -0.0010000000 -0.0008461538 80553207.1299471706 80507485.1553357542 24055764.9834719598 15145823709882498.0000000000 1.0000000000 
-0.0010000000 -0.0010000000 -0.0006923077 44374953.3494145647 44305934.1005608439 74856471.1448753774 6961138159366498.0000000000 0.9997876969 
-0.0010000000 -0.0010000000 -0.0005384615 44595622.9317523539 44575066.8703156784 73989500.0338052809 2305366563399069.0000000000 1.0000000000 
-0.0010000000 -0.0010000000 -0.0003846154 29726545.1169795170 29733872.2073616125 62623945.7703374922 -8944662212714759.0000000000 1.0000000000 
-0.0010000000 -0.0010000000 -0.0002307692 74364696.8529264033 74314575.4040444940 60537033.4470879361 -12652820085885604.0000000000 1.0000000000 
-0.0010000000 -0.0010000000 -0.0000769231 -17142700.6814163141 -17102549.5472157262 79998867.2540542483 2162734812408936.5000000000 1.0000000000 
-0.0010000000 -0.0010000000 0.0000769231 -17125927.9613501988 -17084740.0973342247 -80029647.6682088524 2170148065814323.0000000000 1.0000000000 
-0.0010000000 -0.0010000000 0.0002307692 74368287.2958177477 74321001.5596312284 -60550645.7858983949 -12656148782653140.0000000000 1.0000000000 
-0.0010000000 -0.0010000000 0.0003846154 29735407.2637231722 29744855.9844864905 -62648531.8960610777 -8941847902844084.0000000000 1.0000000000 
-0.0010000000 -0.0010000000 0.0005384615 44630420.2090563104 44612293.4439678937 -73993702.8963211030 2297227903248717.0000000000 1.0000000000 
-0.0010000000 -0.0010000000 0.0006923077 44388300.7105042115 44328840.6888866797 -74867483.8736305237 6958289897113263.0000000000 0.9997876080 
-0.0010000000 -0.0010000000 0.0008461538 80593031.7165664732 80545804.1418899745 -24022252.9638837539 15127961955060782.0000000000 1.0000000000 
0.0010000000 -0.0010000000 -0.0008461538 -80443394.2040635347 80610293.3754535168 24093345.2252861597 15150864430245964.0000000000 1.0000000000 
0.0010000000 -0.0010000000 -0.0006923077 -44311450.4989697337 44372160.5405878872 74888308.9984675050 6947725567357477.0000000000 0.9997877237 
0.0010000000 -0.0010000000 -0.0005384615 -44566345.5571462959 44611335.5339606032 74001388.1392752230 2316369004813664.0000000000 1.0000000000 
0.0010000000 -0.0010000000 -0.0003846154 -29736005.7919475064 29722343.9517014027 62637808.1050800458 -8949424384603819.0000000000 1.0000000000 
0.0010000000 -0.0010000000 -0.0002307692 -74331108.6004317403 74357893.0215911120 60546621.1508965865 -12646686429955820.0000000000 1.0000000000 
0.0010000000 -0.0010000000 -0.0000769231 17082320.1446208768 -17118426.2709039003 80012722.3916576207 2164060962569516.5000000000 1.0000000000 
0.0010000000 -0.0010000000 0.0000769231 17082591.9532252327 -17115482.9174149036 -80012238.1639487892 2165766116039747.0000000000 1.0000000000 
0.0010000000 -0.0010000000 0.0002307692 -74307556.3427057564 74397529.0201438218 -60540592.9857255369 -12647950451504572.0000000000 1.0000000000 
0.0010000000 -0.0010000000 0.0003846154 -29721282.1923808008 29745273.4556116685 -62630833.6740585566 -8951719947991674.0000000000 1.0000000000 
0.0010000000 -0.0010000000 0.0005384615 -44588633.4921473935 44606251.4054066688 -73997033.4060935825 2316535037143949.5000000000 1.0000000000 
0.0010000000 -0.0010000000 0.0006923077 -44303408.1650785953 44397248.5893479139 -74886239.4150160104 6944789485357572.0000000000 0.9997877150 
0.0010000000 -0.0010000000 0.0008461538 -80556183.5791637003 80483754.6144336164 -24101902.3068897799 15147296704546682.0000000000 1.0000000000 
0.0010000000 0.0010000000 -0.0008461538 -80603910.7133932710 -80549259.9631283283 24017689.1902401112 15131535500878518.0000000000 1.0000000000 
0.0010000000 0.0010000000 -0.0006923077 -44377495.7967534661 -44317298.7354751006 74881564.3175753802 6959693436939152.0000000000 0.9997876237 
0.0010000000 0.0010000000 -0.0005384615 -44616132.4887703657 -44597969.4819607139 74010178.3930275589 2298442515746529.0000000000 1.0000000000 
0.0010000000 0.0010000000 -0.0003846154 -29721547.3706890456 -29731522.5254715756 62665307.5304209888 -8941499405586348.0000000000 1.0000000000 
0.0010000000 0.0010000000 -0.0002307692 -74352720.7250626832 -74306314.9292633086 60567223.5584946722 -12653396197099916.0000000000 1.0000000000 
0.0010000000 0.0010000000 -0.0000769231 17131300.5788798705 17091392.1134126298 80033305.8874073178 2167492152192898.7500000000 1.0000000000 
0.0010000000 0.0010000000 0.0000769231 17149948.8884827495 17108518.4505657591 -79996946.2528310418 2163514894733252.5000000000 1.0000000000 
0.0010000000 0.0010000000 0.0002307692 -74366581.3533740342 -74315561.2729793042 -60541463.5894403830 -12653539149339888.0000000000 1.0000000000 
0.0010000000 0.0010000000 0.0003846154 -29722124.6728408411 -29728936.3824040703 -62623880.7303696573 -8949561711566466.0000000000 1.0000000000 
0.0010000000 0.0010000000 0.0005384615 -44599327.0296865553 -44578821.1892805919 -73993310.5056674927 2307299429656192.0000000000 1.0000000000 
0.0010000000 0.0010000000 0.0006923077 -44383031.3311861977 -44314699.7457269281 -74859824.8980787694 6957168413315532.0000000000 0.9997876980 
0.0010000000 0.0010000000 0.0008461538 -80547822.0695140660 -80509572.2861749232 -24060933.7167549059 15142005811553778.0000000000 1.0000000000 
-0.0010000000 0.0010000000 -0.0008461538 80559305.8190724403 -80492407.6283773035 24094893.8605657741 15150271187863230.0000000000 1.0000000000 
-0.0010000000 0.0010000000 -0.0006923077 44306437.5223764479 -44375541.2487742081 74890531.5326230675 6947734333557733.0000000000 0.9997877229 
-0.0010000000 0.0010000000 -0.0005384615 44592382.7813821808 -44585651.7227336094 74002731.5123616606 2316039414759213.0000000000 1.0000000000 
-0.0010000000 0.0010000000 -0.0003846154 29731079.3081661649 -29726706.3720597625 62639119.1618356705 -8948874796520119.0000000000 1.0000000000 
-0.0010000000 0.0010000000 -0.0002307692 74309617.9712111354 -74379567.5498596132 60547210.9211136475 -12646593458137076.0000000000 1.0000000000 
-0.0010000000 0.0010000000 -0.0000769231 -17077569.7570237480 17122419.2425319701 80014887.5089590400 2164329285418804.7500000000 1.0000000000 
-0.0010000000 0.0010000000 0.0000769231 -17074093.5950134620 17124674.1156523265 -80010063.5028232336 2165487629512968.5000000000 1.0000000000 
-0.0010000000 0.0010000000 0.0002307692 74348158.6439370960 -74356710.9483838081 -60540032.7138347998 -12648012002761078.0000000000 1.0000000000 
-0.0010000000 0.0010000000 0.0003846154 29754015.9332200177 -29713083.8440583684 -62629579.9840636849 -8952283977915679.0000000000 1.0000000000 
-0.0010000000 0.0010000000 0.0005384615 44586962.5119541138 -44607547.2285318151 -73995715.7418946922 2316881269086719.5000000000 1.0000000000 
-0.0010000000 0.0010000000 0.0006923077 44333895.3859345764 -44368499.1432444900 -74884020.2297175825 6944772922736684.0000000000 0.9997877158 
-0.0010000000 0.0010000000 0.0008461538 80442279.0749232769 -80599704.0609987825 -24100313.1683706008 15147880648699824.0000000000 1.0000000000 
-0.0008461538 -0.0008461538 -0.0010000000 60817323.2841700464 60834041.3961551338 37378370.3686215058 -27495217341470876.0000000000 1.0000000000 
-0.0008461538 -0.0006923077 -0.0010000000 24115084.9512718581 96613399.7541877478 19365478.6164083257 -2804709140537200.0000000000 1.0000000000 
-0.0008461538 -0.0005384615 -0.0010000000 31411532.5757093914 17346396.6711673141 9310896.0164149925 -3361169264027860.0000000000 1.0000000000 
-0.0008461538 -0.0003846154 -0.0010000000 28737547.0509017259 47816724.1201746836 18951106.0098075047 -5486884615154700.0000000000 1.0000000000 
-0.0008461538 -0.0002307692 -0.0010000000 42715432.9813583940 33554325.0969912522 21462187.8174243122 9947207516874172.0000000000 1.0000000000 
-0.0008461538 -0.0000769231 -0.0010000000 13699639.2441636045 60291487.6415346190 -74405559.5129349679 -15020131552041794.0000000000 0.9999528013 
-0.0008461538 0.0000769231 -0.0010000000 13717907.3475282025 -60290696.1598195583 -74356680.5319418162 -14998855281146362.0000000000 0.9999527043 
-0.0008461538 0.0002307692 -0.0010000000 42790759.1838191226 -33542803.0703280270 21444565.5396120884 9908268554042100.0000000000 1.0000000000 
-0.0008461538 0.0003846154 -0.0010000000 28752249.3748053871 -47957034.5701692179 18843286.4114440754 -5457121850634661.0000000000 1.0000000000 
-0.0008461538 0.0005384615 -0.0010000000 31349054.9547952898 -17562973.3443908207 9287771.9196108840 -3365665885811527.5000000000 1.0000000000 
-0.0008461538 0.0006923077 -0.0010000000 24176558.7467154860 -96798549.2149371207 19221201.7103668079 -2837664815564700.0000000000 1.0000000000 
-0.0008461538 0.0008461538 -0.0010000000 60858562.9674562886 -60809417.9664600641 37395016.2232443616 -27489173932800028.0000000000 1.0000000000 
-0.0006923077 -0.0008461538 -0.0010000000 96785273.9455608279 24152351.8291930631 19218004.9666016214 -2835398524487233.0000000000 1.0000000000 
-0.0006923077 -0.0006923077 -0.0010000000 27698389.4730694853 27686907.5550869144 -11092431.6605539899 1741174586592396.0000000000 0.9998586828 
-0.0006923077 -0.0005384615 -0.0010000000 25241094.0044583939 519688.5986524991 24052592.2322731987 286473086817438.3750000000 1.0000000000 
-0.0006923077 -0.0003846154 -0.0010000000 -14513207.9597379584 -28142088.8701551743 -68426147.3939179331 -101031525736225.7500000000 1.0000000000 
-0.0006923077 -0.0002307692 -0.0010000000 -35415692.8232579902 -66706876.7954975292 -111689072.1966174692 -24292911798989816.0000000000 1.0000000000 
-0.0006923077 -0.0000769231 -0.0010000000 24708630.0369264074 18360354.5461343639 -3350850.8095114566 -177784544258350.3125000000 1.0000000000 
-0.0006923077 0.0000769231 -0.0010000000 24710559.3576557264 -18268134.4519243017 -3218552.9383191927 -158995307210712.5000000000 1.0000000000 
-0.0006923077 0.0002307692 -0.0010000000 -35195546.5287849605 66746380.8904881701 -111661370.6788402647 -24299527966167628.0000000000 1.0000000000 
-0.0006923077 0.0003846154 -0.0010000000 -14388106.9169038013 28135608.2449881174 -68221371.5999552757 -41041313652228.7500000000 1.0000000000 
-0.0006923077 0.0005384615 -0.0010000000 25346594.7130888663 -499255.0006211025 24081950.8018559404 254878464839215.8750000000 1.0000000000 
-0.0006923077 0.0006923077 -0.0010000000 27711079.4586327933 -27635297.1661893502 -11097302.2383951955 1734998985539350.7500000000 0.9998587534 
-0.0006923077 0.0008461538 -0.0010000000 96602991.4082523882 -24109771.2948878556 19352019.3445898816 -2803054815255056.5000000000 1.0000000000 
-0.0005384615 -0.0008461538 -0.0010000000 17521594.5765521675 31320422.0102216005 9336855.0998455398 -3354021486641193.5000000000 1.0000000000 
-0.0005384615 -0.0006923077 -0.0010000000 416235.5519613063 25324074.7140640058 24054943.0196022913 253729815852289.5000000000 1.0000000000 
-0.0005384615 -0.0005384615 -0.0010000000 39801538.9631350040 39787493.6567109600 11233203.9135791194 -398812242329662.1250000000 1.0000000000 
-0.0005384615 -0.0003846154 -0.0010000000 20080131.0968414918 12600836.7421653662 12206510.7311565094 -12698649521189796.0000000000 1.0000000000 
-0.0005384615 -0.0002307692 -0.0010000000 21914581.2877971418 67484619.1292559803 98313653.3862249255 -13193096380488544.0000000000 1.0000000000 
-0.0005384615 -0.0000769231 -0.0010000000 100552601.2882411927 -23892636.1787313148 -274802870.6659826636 -24614649919925688.0000000000 1.0000000000 
-0.0005384615 0.0000769231 -0.0010000000 100736691.3370812386 23969450.8182827532 -274879250.3249462843 -24587509714583132.0000000000 1.0000000000 
-0.0005384615 0.0002307692 -0.0010000000 21870569.7089325599 -67586962.7628511041 98398675.9313754290 -13149483873883568.0000000000 1.0000000000 
-0.0005384615 0.0003846154 -0.0010000000 20090431.3354372457 -12616918.5576050486 12154831.1113251597 -12688745044400466.0000000000 1.0000000000 
-0.0005384615 0.0005384615 -0.0010000000 39768766.9913668483 -39727384.9690371975 11220217.8878283538 -397697845334738.5625000000 1.0000000000 
-0.0005384615 0.0006923077 -0.0010000000 595910.8549762198 -25312735.6960030794 23982827.1292993613 292929446007726.7500000000 1.0000000000 
-0.0005384615 0.0008461538 -0.0010000000 17329799.1937443614 -31416834.3370793425 9309056.8842910174 -3374318096411567.0000000000 1.0000000000 
-0.0003846154 -0.0008461538 -0.0010000000 47935619.9162033126 28739132.4838393927 18861380.5872336850 -5462357741804591.0000000000 1.0000000000 
-0.0003846154 -0.0006923077 -0.0010000000 -28106004.9286834411 -14412641.0555160604 -68188158.0892409533 -43454319509200.7500000000 1.0000000000 
-0.0003846154 -0.0005384615 -0.0010000000 12582611.7693886217 20091124.7727082260 12157014.2211194821 -12694703210767866.0000000000 1.0000000000 
-0.0003846154 -0.0003846154 -0.0010000000 49928184.6125576347 49609594.8004954606 -241266717.5547809005 21703646957226052.0000000000 0.9997957825 
-0.0003846154 -0.0002307692 -0.0010000000 -97880631.5431599915 -27458527.9615766443 103167459.4767700136 -3824527947738255.0000000000 1.0000000000 
-0.0003846154 -0.0000769231 -0.0010000000 -23998834.8539520055 175313533.1818501353 19117803.9270218052 14687563984567058.0000000000 0.9999638806 
-0.0003846154 0.0000769231 -0.0010000000 -24169172.0691607930 -175479519.1913248301 19118069.3052662015 14671715322613818.0000000000 0.9999638971 
-0.0003846154 0.0002307692 -0.0010000000 -97668144.6869315058 27663976.8637910299 103197786.0944886804 -3826239304021117.0000000000 1.0000000000 
-0.0003846154 0.0003846154 -0.0010000000 49612426.3872499913 -49993651.9099081829 -241234486.8297108412 21699060802598624.0000000000 0.9997957822 
-0.0003846154 0.0005384615 -0.0010000000 12628364.2234990131 -20089223.5867671557 12206043.4247163944 -12698526971826556.0000000000 1.0000000000 
-0.0003846154 0.0006923077 -0.0010000000 -28083843.4808885641 14563314.4823328797 -68419789.2808297873 -102208288296342.2500000000 1.0000000000 
-0.0003846154 0.0008461538 -0.0010000000 47806428.5698328391 -28754301.3610945269 18951771.5197786130 -5481861061484770.0000000000 1.0000000000 
-0.0002307692 -0.0008461538 -0.0010000000 33534897.5442395210 42781070.1366763934 21460781.5872350596 9926512469186144.0000000000 1.0000000000 
-0.0002307692 -0.0006923077 -0.0010000000 -66771034.8441028967 -35219653.6963038370 -111618801.2377156913 -24289713309465840.0000000000 1.0000000000 
-0.0002307692 -0.0005384615 -0.0010000000 67655059.6790266186 21884173.3874458969 98418065.4345677346 -13152878299717638.0000000000 1.0000000000 
-0.0002307692 -0.0003846154 -0.0010000000 -27651363.6128258742 -97703605.3505018651 103206876.1684368253 -3823753665850189.0000000000 1.0000000000 
-0.0002307692 -0.0002307692 -0.0010000000 -2275003.8972117291 -2289614.7331850063 44324920.8268420547 -22419321241512696.0000000000 1.0000000000 