 TITLE = "velocity plot"
 VARIABLES = "X", "Y", "Z", "U", "V", "W", "p", "vapFrac"
 ZONE SOLUTIONTIME=0.000000, NODES=2744 , ELEMENTS=2197, DATAPACKING=POINT, ZONETYPE=FEBRICK
-0.0010000000 -0.0010000000 -0.0010000000 -42084977638500745216.0000000000 -29729026519001710592.0000000000 111011653990488293376.0000000000 -3093533890048570828819267584.0000000000 1.0000000000 
0.0010000000 -0.0010000000 -0.0010000000 -42081833964683902976.0000000000 -29727705103024660480.0000000000 111010016731506475008.0000000000 -4428583445725107969415184384.0000000000 0.9980011472 
0.0010000000 0.0010000000 -0.0010000000 -42087085962652188672.0000000000 -29729932820954865664.0000000000 111012741259607670784.0000000000 -1522961510489743681623425024.0000000000 0.9993999401 
-0.0010000000 0.0010000000 -0.0010000000 -42090229322207354880.0000000000 -29731254177390968832.0000000000 111014378281500393472.0000000000 -167454580995532822824353792.0000000000 0.9951629496 
-0.0010000000 -0.0010000000 0.0010000000 -42083215690097942528.0000000000 -29728310866704908288.0000000000 111010739249564942336.0000000000 -3378907861879473116622618624.0000000000 0.9984589108 
0.0010000000 -0.0010000000 0.0010000000 -42080070123912888320.0000000000 -29726988585180643328.0000000000 111009101481661661184.0000000000 -135850554083932674679898112.0000000000 1.0000000000 
0.0010000000 0.0010000000 0.0010000000 -42085315014541312000.0000000000 -29729214847253712896.0000000000 111011818496214024192.0000000000 -147449775140086943997493248.0000000000 1.0000000000 
-0.0010000000 0.0010000000 0.0010000000 -42088459851773140992.0000000000 -29730536907415674880.0000000000 111013455972959993856.0000000000 -16248110888415089602120908800.0000000000 1.0000000000 
-0.0008461538 -0.0010000000 -0.0010000000 -42084735818051608576.0000000000 -29728924874386350080.0000000000 111011528049352081408.0000000000 -3275765494129087123510263808.0000000000 1.0000000000 
-0.0006923077 -0.0010000000 -0.0010000000 -42084493997403283456.0000000000 -29728823228265213952.0000000000 111011402107181481984.0000000000 -1773084415930883457362690048.0000000000 1.0000000000 
-0.0005384615 -0.0010000000 -0.0010000000 -42084252176554287104.0000000000 -29728721581461200896.0000000000 111011276164850221056.0000000000 -3263269887453722015747276800.0000000000 1.0000000000 
-0.0003846154 -0.0010000000 -0.0010000000 -42084010355541975040.0000000000 -29728619933826252800.0000000000 111011150222052098048.0000000000 -2789034253350449887968231424.0000000000 0.9999763998 
-0.0002307692 -0.0010000000 -0.0010000000 -42083768534393880576.0000000000 -29728518286124195840.0000000000 111011024279526637568.0000000000 -2301658542956544249410093056.0000000000 0.9992894371 
-0.0000769231 -0.0010000000 -0.0010000000 -42083526713390850048.0000000000 -29728416638281527296.0000000000 111010898336714227712.0000000000 -3207115664147561362120245248.0000000000 0.9980374529 
0.0000769231 -0.0010000000 -0.0010000000 -42083284892728418304.0000000000 -29728314990284808192.0000000000 111010772394172596224.0000000000 -3980549312194606215953645568.0000000000 0.9972053642 
0.0002307692 -0.0010000000 -0.0010000000 -42083043072202162176.0000000000 -29728213341854588928.0000000000 111010646451402309632.0000000000 -3403917043697933977743523840.0000000000 0.9972523098 
0.0003846154 -0.0010000000 -0.0010000000 -42082801251630333952.0000000000 -29728111693433958400.0000000000 111010520508292415488.0000000000 -312927333707466471387430912.0000000000 0.9992235922 
0.0005384615 -0.0010000000 -0.0010000000 -42082559430933684224.0000000000 -29728010045005238272.0000000000 111010394564685627392.0000000000 -3332654301703089178311393280.0000000000 1.0000000000 
0.0006923077 -0.0010000000 -0.0010000000 -42082317609540345856.0000000000 -29727908397065445376.0000000000 111010268620669517824.0000000000 -3922991377977177666771484672.0000000000 0.9990487211 
0.0008461538 -0.0010000000 -0.0010000000 -42082075787543265280.0000000000 -29727806749654925312.0000000000 111010142676249051136.0000000000 -2571496841837844283640512512.0000000000 0.9980241978 
0.0010000000 -0.0008461538 -0.0010000000 -42082237924185006080.0000000000 -29727876488653557760.0000000000 111010226294712221696.0000000000 -1666196163339133006613839872.0000000000 0.9987717053 
0.0010000000 -0.0006923077 -0.0010000000 -42082641904898514944.0000000000 -29728047878648762368.0000000000 111010435888946659328.0000000000 -2829268487409339500305842176.0000000000 1.0000000000 
0.0010000000 -0.0005384615 -0.0010000000 -42083045894086811648.0000000000 -29728219268203868160.0000000000 111010645489840422912.0000000000 -1338382675305728897391263744.0000000000 1.0000000000 
0.0010000000 -0.0003846154 -0.0010000000 -42083449904122257408.0000000000 -29728390654753239040.0000000000 111010855113727492096.0000000000 -890302772961116154413187072.0000000000 1.0000000000 
0.0010000000 -0.0002307692 -0.0010000000 -42083853920066191360.0000000000 -29728562034558201856.0000000000 111011064735146688512.0000000000 -2619314741841526872231378944.0000000000 0.9996182844 
0.0010000000 -0.0000769231 -0.0010000000 -42084257950309310464.0000000000 -29728733407633833984.0000000000 111011274374016270336.0000000000 -442201487509238504574943232.0000000000 0.9996935436 
0.0010000000 0.0000769231 -0.0010000000 -42084661976444051456.0000000000 -29728904763782950912.0000000000 111011483999351308288.0000000000 -561316957809917353095331840.0000000000 1.0000000000 
0.0010000000 0.0002307692 -0.0010000000 -42085066008330657792.0000000000 -29729076115910840320.0000000000 111011693623676551168.0000000000 -298004524381766313423405056.0000000000 1.0000000000 
0.0010000000 0.0003846154 -0.0010000000 -42085470027424931840.0000000000 -29729247461943394304.0000000000 111011903213958922240.0000000000 -317850141719524116875182080.0000000000 0.9996829642 
0.0010000000 0.0005384615 -0.0010000000 -42085874041825452032.0000000000 -29729418799549034496.0000000000 111012112794261209088.0000000000 -483027532710047029485633536.0000000000 0.9977305154 
0.0010000000 0.0006923077 -0.0010000000 -42086278032410189824.0000000000 -29729590137900208128.0000000000 111012322322082807808.0000000000 -1262674486462341394244567040.0000000000 0.9984367596 
0.0010000000 0.0008461538 -0.0010000000 -42086682013390446592.0000000000 -29729761479658483712.0000000000 111012531822935212032.0000000000 -1865196333474441633499971584.0000000000 0.9995410852 
0.0008461538 0.0010000000 -0.0010000000 -42087327761065705472.0000000000 -29730034463408123904.0000000000 111012867185094000640.0000000000 -1507045589680704096714096640.0000000000 0.9988238630 
0.0006923077 0.0010000000 -0.0010000000 -42087569558656942080.0000000000 -29730136106112495616.0000000000 111012993109908193280.0000000000 -1152302997418949750055501824.0000000000 0.9988638596 
0.0005384615 0.0010000000 -0.0010000000 -42087811355491033088.0000000000 -29730237749217914880.0000000000 111013119034068926464.0000000000 -892359501055552074362650624.0000000000 0.9991983143 
0.0003846154 0.0010000000 -0.0010000000 -42088053151751430144.0000000000 -29730339392576290816.0000000000 111013244957599449088.0000000000 -725234856696347178760667136.0000000000 0.9982651087 
0.0002307692 0.0010000000 -0.0010000000 -42088294947777454080.0000000000 -29730441036009922560.0000000000 111013370880768311296.0000000000 -447708205453896108690374656.0000000000 0.9985846216 
0.0000769231 0.0010000000 -0.0010000000 -42088536743965179904.0000000000 -29730542679095111680.0000000000 111013496803842998272.0000000000 -48678522379396188997681152.0000000000 0.9997287937 
-0.0000769231 0.0010000000 -0.0010000000 -42088778540080979968.0000000000 -29730644321940250624.0000000000 111013622727284080640.0000000000 -12279235629552933269405696.0000000000 1.0000000000 
-0.0002307692 0.0010000000 -0.0010000000 -42089020336700964864.0000000000 -29730745964691619840.0000000000 111013748651397513216.0000000000 -144361087316359219125420032.0000000000 1.0000000000 
-0.0003846154 0.0010000000 -0.0010000000 -42089262133352177664.0000000000 -29730847607203753984.0000000000 111013874576003923968.0000000000 -105592816133344477770153984.0000000000 0.9990963223 
-0.0005384615 0.0010000000 -0.0010000000 -42089503930290569216.0000000000 -29730949249938284544.0000000000 111014000501345026048.0000000000 -52317618219841012891648000.0000000000 0.9989252350 
-0.0006923077 0.0010000000 -0.0010000000 -42089745727352635392.0000000000 -29731050892591624192.0000000000 111014126427420131328.0000000000 46044675788332367098150912.0000000000 0.9978765608 
-0.0008461538 0.0010000000 -0.0010000000 -42089987524771102720.0000000000 -29731152535277150208.0000000000 111014252354149285888.0000000000 132405452046193353532899328.0000000000 0.9962081113 
-0.0010000000 0.0008461538 -0.0010000000 -42089825416221057024.0000000000 -29731082831658942464.0000000000 111014168938430971904.0000000000 157925213168902941483991040.0000000000 0.9956040109 
-0.0010000000 0.0006923077 -0.0010000000 -42089421479147487232.0000000000 -29730911485441679360.0000000000 111013959521743896576.0000000000 -66834106620405732014555136.0000000000 0.9961720706 
-0.0010000000 0.0005384615 -0.0010000000 -42089017530969628672.0000000000 -29730740138455064576.0000000000 111013750070239248384.0000000000 -317257852229997019313209344.0000000000 0.9973566609 
-0.0010000000 0.0003846154 -0.0010000000 -42088613555786203136.0000000000 -29730568785709330432.0000000000 111013540557562068992.0000000000 -480474863612842710015148032.0000000000 0.9998380840 
-0.0010000000 0.0002307692 -0.0010000000 -42088209577592766464.0000000000 -29730397434420903936.0000000000 111013331015585890304.0000000000 -662645123277510989590822912.0000000000 1.0000000000 
-0.0010000000 0.0000769231 -0.0010000000 -42087805579547222016.0000000000 -29730226084319698944.0000000000 111013121420157796352.0000000000 -897518942953617345954709504.0000000000 1.0000000000 
-0.0010000000 -0.0000769231 -0.0010000000 -42087401578513489920.0000000000 -29730054727714734080.0000000000 111012911810123972608.0000000000 -1007121187818151696886923264.0000000000 1.0000000000 
-0.0010000000 -0.0002307692 -0.0010000000 -42086997564230049792.0000000000 -29729883365473845248.0000000000 111012702167561863168.0000000000 -1648927561778761342365204480.0000000000 0.9998790901 
-0.0010000000 -0.0003846154 -0.0010000000 -42086593559405248512.0000000000 -29729712003155148800.0000000000 111012492525464698880.0000000000 -2240776830890737440963690496.0000000000 1.0000000000 
-0.0010000000 -0.0005384615 -0.0010000000 -42086189554111045632.0000000000 -29729540634503213056.0000000000 111012282870221209600.0000000000 -2962012850686421565679075328.0000000000 1.0000000000 
-0.0010000000 -0.0006923077 -0.0010000000 -42085785567958155264.0000000000 -29729369262101934080.0000000000 111012073232101687296.0000000000 -2146750377856835103429230592.0000000000 0.9993320773 
-0.0010000000 -0.0008461538 -0.0010000000 -42085381590076588032.0000000000 -29729197890202132480.0000000000 111011863597160333312.0000000000 -2892308088737401456795058176.0000000000 0.9994890129 
-0.0008461538 -0.0010000000 0.0010000000 -42082973725241417728.0000000000 -29728209152220975104.0000000000 111010613266510282752.0000000000 -716913706959772904429977600.0000000000 0.9982999498 
-0.0006923077 -0.0010000000 0.0010000000 -42082731760401793024.0000000000 -29728107437755031552.0000000000 111010487282684084224.0000000000 -1840152199198140136473755648.0000000000 0.9976191885 
-0.0005384615 -0.0010000000 0.0010000000 -42082489794683764736.0000000000 -29728005723507073024.0000000000 111010361297851826176.0000000000 -1681545991780898094094221312.0000000000 0.9970999714 
-0.0003846154 -0.0010000000 0.0010000000 -42082247828107771904.0000000000 -29727904009367441408.0000000000 111010235312318939136.0000000000 -1164200833360157808430940160.0000000000 0.9979685191 
-0.0002307692 -0.0010000000 0.0010000000 -42082005860243816448.0000000000 -29727802295362551808.0000000000 111010109326405255168.0000000000 -738555606802051220782448640.0000000000 0.9989185659 
-0.0000769231 -0.0010000000 0.0010000000 -42081763891845365760.0000000000 -29727700581332054016.0000000000 111009983341193330688.0000000000 -112427309535830422608412672.0000000000 0.9992571265 
0.0000769231 -0.0010000000 0.0010000000 -42081521923339042816.0000000000 -29727598867138289664.0000000000 111009857356809895936.0000000000 -111901650523096812898746368.0000000000 0.9996295953 
0.0002307692 -0.0010000000 0.0010000000 -42081279955071385600.0000000000 -29727497152690143232.0000000000 111009731373918617600.0000000000 44726300739775641700794368.0000000000 1.0000000000 
0.0003846154 -0.0010000000 0.0010000000 -42081037987401285632.0000000000 -29727395438533689344.0000000000 111009605392666001408.0000000000 -56091988006601487663759360.0000000000 1.0000000000 
0.0005384615 -0.0010000000 0.0010000000 -42080796020424908800.0000000000 -29727293724581085184.0000000000 111009479413035679744.0000000000 -145184613806046785893826560.0000000000 1.0000000000 
0.0006923077 -0.0010000000 0.0010000000 -42080554054244589568.0000000000 -29727192011101843456.0000000000 111009353434824327168.0000000000 -259127700127387488589185024.0000000000 1.0000000000 
0.0008461538 -0.0010000000 0.0010000000 -42080312088620433408.0000000000 -29727090297940402176.0000000000 111009227457753350144.0000000000 -205356880497852770846507008.0000000000 1.0000000000 
0.0010000000 -0.0008461538 0.0010000000 -42080473567170682880.0000000000 -29727159822009253888.0000000000 111009310490901741568.0000000000 -32391792607896841945612288.0000000000 1.0000000000 
0.0010000000 -0.0006923077 0.0010000000 -42080877015952662528.0000000000 -29727331062515494912.0000000000 111009519497960030208.0000000000 -189572149118482901775679488.0000000000 1.0000000000 
0.0010000000 -0.0005384615 0.0010000000 -42081280468426137600.0000000000 -29727502307837341696.0000000000 111009728506438664192.0000000000 -103020004578303723691835392.0000000000 1.0000000000 
0.0010000000 -0.0003846154 0.0010000000 -42081683925795946496.0000000000 -29727673557450301440.0000000000 111009937513212968960.0000000000 20592163457145019016675328.0000000000 0.9980949679 
0.0010000000 -0.0002307692 0.0010000000 -42082087385222995968.0000000000 -29727844808280932352.0000000000 111010146521686360064.0000000000 -42458638895884943895822336.0000000000 0.9974459327 
0.0010000000 -0.0000769231 0.0010000000 -42082490842994802688.0000000000 -29728016064793972736.0000000000 111010355522892054528.0000000000 -618900591679119641433604096.0000000000 0.9971752280 
0.0010000000 0.0000769231 0.0010000000 -42082894298811473920.0000000000 -29728187322060910592.0000000000 111010564520865415168.0000000000 -691269372463902356498546688.0000000000 0.9977770515 
0.0010000000 0.0002307692 0.0010000000 -42083297754562756608.0000000000 -29728358582777176064.0000000000 111010773510208520192.0000000000 -861017239068803230544691200.0000000000 0.9977291589 
0.0010000000 0.0003846154 0.0010000000 -42083701211166793728.0000000000 -29728529842984001536.0000000000 111010982499694034944.0000000000 -1262735057703156883918946304.0000000000 0.9971883675 
0.0010000000 0.0005384615 0.0010000000 -42084104666394296320.0000000000 -29728701096716902400.0000000000 111011191493284020224.0000000000 -945368878057881833555623936.0000000000 0.9985633241 
0.0010000000 0.0006923077 0.0010000000 -42084508118369239040.0000000000 -29728872349696245760.0000000000 111011400490476322816.0000000000 -2967424419678596755399639040.0000000000 1.0000000000 
0.0010000000 0.0008461538 0.0010000000 -42084911569835163648.0000000000 -29729043602189221888.0000000000 111011609488758947840.0000000000 -3526147086011626302130356224.0000000000 1.0000000000 
0.0008461538 0.0010000000 0.0010000000 -42085556925286817792.0000000000 -29729316544441876480.0000000000 111011944463075770368.0000000000 -4209050635167259659784421376.0000000000 0.9995191683 
0.0006923077 0.0010000000 0.0010000000 -42085798834836316160.0000000000 -29729418241361698816.0000000000 111012070427159347200.0000000000 -1671005815649707583468470272.0000000000 1.0000000000 
0.0005384615 0.0010000000 0.0010000000 -42086040744263024640.0000000000 -29729519938560536576.0000000000 111012196389655887872.0000000000 -3930607911892298262797877248.0000000000 1.0000000000 
0.0003846154 0.0010000000 0.0010000000 -42086282653630472192.0000000000 -29729621635556675584.0000000000 111012322349977894912.0000000000 -1205661220018299092529577984.0000000000 1.0000000000 
0.0002307692 0.0010000000 0.0010000000 -42086524564105420800.0000000000 -29729723332667539456.0000000000 111012448309725249536.0000000000 -2868096679037965156545986560.0000000000 1.0000000000 
0.0000769231 0.0010000000 0.0010000000 -42086766475373535232.0000000000 -29729825029146738688.0000000000 111012574268895199232.0000000000 -4909135793786415168155025408.0000000000 1.0000000000 
-0.0000769231 0.0010000000 0.0010000000 -42087008387428401152.0000000000 -29729926725716332544.0000000000 111012700228363304960.0000000000 -2785148104005766916104781824.0000000000 1.0000000000 
-0.0002307692 0.0010000000 0.0010000000 -42087250299629953024.0000000000 -29730028422117670912.0000000000 111012826187502452736.0000000000 -1049082433467505230986870784.0000000000 1.0000000000 
-0.0003846154 0.0010000000 0.0010000000 -42087492211516735488.0000000000 -29730130118752198656.0000000000 111012952146650169344.0000000000 90924890827270168971837440.0000000000 0.9997914303 
-0.0005384615 0.0010000000 0.0010000000 -42087734122425221120.0000000000 -29730231815543799808.0000000000 111013078104809668608.0000000000 -6177025379901510451522961408.0000000000 1.0000000000 
-0.0006923077 0.0010000000 0.0010000000 -42087976032649601024.0000000000 -29730333512725606400.0000000000 111013204061932716032.0000000000 -8050313979001864466659803136.0000000000 1.0000000000 
-0.0008461538 0.0010000000 0.0010000000 -42088217942277545984.0000000000 -29730435209997656064.0000000000 111013330017865957376.0000000000 -3459154146778600726178299904.0000000000 1.0000000000 
-0.0010000000 0.0008461538 0.0010000000 -42088056467640877056.0000000000 -29730365679437701120.0000000000 111013247011876978688.0000000000 -8246669650633762360170381312.0000000000 1.0000000000 
-0.0010000000 0.0006923077 0.0010000000 -42087653076614160384.0000000000 -29730194448388882432.0000000000 111013038046551539712.0000000000 -9217275068384306972466348032.0000000000 0.9987189718 
-0.0010000000 0.0005384615 0.0010000000 -42087249679912108032.0000000000 -29730023214799982592.0000000000 111012829078047604736.0000000000 -8793708363383388739448340480.0000000000 0.9996938514 
-0.0010000000 0.0003846154 0.0010000000 -42086846275466936320.0000000000 -29729851974306750464.0000000000 111012620111839248384.0000000000 -8395376485093448001016299520.0000000000 1.0000000000 
-0.0010000000 0.0002307692 0.0010000000 -42086442872327045120.0000000000 -29729680733636493312.0000000000 111012411143362838528.0000000000 -9779076911291641834997022720.0000000000 1.0000000000 
-0.0010000000 0.0000769231 0.0010000000 -42086039470292623360.0000000000 -29729509492992192512.0000000000 111012202172260384768.0000000000 -9298534131011096895796805632.0000000000 1.0000000000 
-0.0010000000 -0.0000769231 0.0010000000 -42085636068241145856.0000000000 -29729338251496771584.0000000000 111011993196365430784.0000000000 -8238968901588863995655225344.0000000000 1.0000000000 
-0.0010000000 -0.0002307692 0.0010000000 -42085232665952092160.0000000000 -29729167014573772800.0000000000 111011784213226962944.0000000000 -8620340279881983146642636800.0000000000 1.0000000000 
-0.0010000000 -0.0003846154 0.0010000000 -42084829264347070464.0000000000 -29728995780158070784.0000000000 111011575222921330688.0000000000 -7261472967634908182338338816.0000000000 1.0000000000 
-0.0010000000 -0.0005384615 0.0010000000 -42084425864490213376.0000000000 -29728824546923405312.0000000000 111011366230372909056.0000000000 -4926756005176419562538663936.0000000000 1.0000000000 
-0.0010000000 -0.0006923077 0.0010000000 -42084022468186046464.0000000000 -29728653318979461120.0000000000 111011157234401492992.0000000000 -3664580357196633476387831808.0000000000 1.0000000000 
-0.0010000000 -0.0008461538 0.0010000000 -42083619074741051392.0000000000 -29728482092394467328.0000000000 111010948241155571712.0000000000 -3467426541580459535977414656.0000000000 0.9997076834 
-0.0010000000 -0.0010000000 -0.0008461538 -42084842244271939584.0000000000 -29728971386798080000.0000000000 111011584585681649664.0000000000 -2044331591918832284591980544.0000000000 1.0000000000 
-0.0010000000 -0.0010000000 -0.0006923077 -42084706790288842752.0000000000 -29728916206025220096.0000000000 111011514715976990720.0000000000 -1989059301732540714168877056.0000000000 1.0000000000 
-0.0010000000 -0.0010000000 -0.0005384615 -42084571287437778944.0000000000 -29728861022049955840.0000000000 111011444782071758848.0000000000 -1755419302649433030177849344.0000000000 1.0000000000 
-0.0010000000 -0.0010000000 -0.0003846154 -42084435724669460480.0000000000 -29728805854466801664.0000000000 111011374544063021056.0000000000 -1239440162020379599296266240.0000000000 1.0000000000 
-0.0010000000 -0.0010000000 -0.0002307692 -42084300187913289728.0000000000 -29728750696722481152.0000000000 111011304249527861248.0000000000 -893092427526150060215631872.0000000000 1.0000000000 
-0.0010000000 -0.0010000000 -0.0000769231 -42084164549187690496.0000000000 -29728695590939529216.0000000000 111011233655207985152.0000000000 -649289582648998849952088064.0000000000 1.0000000000 
-0.0010000000 -0.0010000000 0.0000769231 -42084028950184026112.0000000000 -29728640514626326528.0000000000 111011163060825833472.0000000000 -271105627642587886762590208.0000000000 1.0000000000 
-0.0010000000 -0.0010000000 0.0002307692 -42083893265658445824.0000000000 -29728585517900283904.0000000000 111011092199359840256.0000000000 18964964656901255036141568.0000000000 0.9996707187 
-0.0010000000 -0.0010000000 0.0003846154 -42083757668039901184.0000000000 -29728530597315952640.0000000000 111011021456130195456.0000000000 -789167368993283179188060160.0000000000 0.9992097935 
-0.0010000000 -0.0010000000 0.0005384615 -42083622086964420608.0000000000 -29728475720026644480.0000000000 111010950673312382976.0000000000 -1611188663784878154174169088.0000000000 0.9988095986 
-0.0010000000 -0.0010000000 0.0006923077 -42083486658389475328.0000000000 -29728420863015530496.0000000000 111010880183435001856.0000000000 -2238405104321582503619985408.0000000000 0.9985460623 
-0.0010000000 -0.0010000000 0.0008461538 -42083351215524888576.0000000000 -29728365850107510784.0000000000 111010809852667002880.0000000000 -2558039949393736697976455168.0000000000 0.9984144180 
0.0010000000 -0.0010000000 -0.0008461538 -42081698367488327680.0000000000 -29727649930565988352.0000000000 111009947302903529472.0000000000 -2053739513705208477663625216.0000000000 0.9982399868 
0.0010000000 -0.0010000000 -0.0006923077 -42081562737435181056.0000000000 -29727594694484987904.0000000000 111009877448154447872.0000000000 -1786276441102855307289165824.0000000000 0.9984471237 
0.0010000000 -0.0010000000 -0.0005384615 -42081427123667574784.0000000000 -29727539419411038208.0000000000 111009807516477538304.0000000000 -1926290624969194110269259776.0000000000 0.9985724108 
0.0010000000 -0.0010000000 -0.0003846154 -42081291459329638400.0000000000 -29727484146962927616.0000000000 111009737284528783360.0000000000 -1523206807524259777166180352.0000000000 0.9986615599 
0.0010000000 -0.0010000000 -0.0002307692 -42081155771450097664.0000000000 -29727428915676200960.0000000000 111009667073670397952.0000000000 -1006589400932925834642063360.0000000000 0.9986942960 
0.0010000000 -0.0010000000 -0.0000769231 -42081020001633026048.0000000000 -29727373721769496576.0000000000 111009596409817808896.0000000000 -800756623736736833188397056.0000000000 0.9987889480 
0.0010000000 -0.0010000000 0.0000769231 -42080884249381003264.0000000000 -29727318573791711232.0000000000 111009525748577550336.0000000000 -670145111073161348909105152.0000000000 0.9989221666 
0.0010000000 -0.0010000000 0.0002307692 -42080748387220594688.0000000000 -29727263552335446016.0000000000 111009454732304842752.0000000000 -794215874571208605143400448.0000000000 0.9992216774 
0.0010000000 -0.0010000000 0.0003846154 -42080612671415894016.0000000000 -29727208601135439872.0000000000 111009383939457482752.0000000000 -685069591572739540058636288.0000000000 0.9996080983 
0.0010000000 -0.0010000000 0.0005384615 -42080476972309577728.0000000000 -29727153716225986560.0000000000 111009313065804562432.0000000000 -571126968105901684540047360.0000000000 1.0000000000 
0.0010000000 -0.0010000000 0.0006923077 -42080341472671899648.0000000000 -29727098753674842112.0000000000 111009242707608928256.0000000000 -584949659512416255302696960.0000000000 1.0000000000 
0.0010000000 -0.0010000000 0.0008461538 -42080205847620001792.0000000000 -29727043608494026752.0000000000 111009172301684850688.0000000000 -374339228536061877182005248.0000000000 1.0000000000 
0.0010000000 0.0010000000 -0.0008461538 -42086949597744103424.0000000000 -29729877445347770368.0000000000 111012670366840160256.0000000000 -1390774794832842724273553408.0000000000 0.9995733801 
0.0010000000 0.0010000000 -0.0006923077 -42086813243709710336.0000000000 -29729822095922933760.0000000000 111012599395479617536.0000000000 -572438486124180430607351808.0000000000 0.9998329834 
0.0010000000 0.0010000000 -0.0005384615 -42086676912857595904.0000000000 -29729766752845062144.0000000000 111012528373920382976.0000000000 -331301410846876291251044352.0000000000 1.0000000000 
0.0010000000 0.0010000000 -0.0003846154 -42086540575459835904.0000000000 -29729711446761644032.0000000000 111012457289667788800.0000000000 -247080697342606317153419264.0000000000 1.0000000000 
0.0010000000 0.0010000000 -0.0002307692 -42086404254027489280.0000000000 -29729656179391250432.0000000000 111012386223382921216.0000000000 -190239963288289891470802944.0000000000 1.0000000000 
0.0010000000 0.0010000000 -0.0000769231 -42086267957091057664.0000000000 -29729600948458274816.0000000000 111012315049110896640.0000000000 -92688030422328284098330624.0000000000 1.0000000000 
0.0010000000 0.0010000000 0.0000769231 -42086131693511540736.0000000000 -29729545771041837056.0000000000 111012243974253101056.0000000000 24746068223293836601851904.0000000000 0.9999277681 
0.0010000000 0.0010000000 0.0002307692 -42085995475137986560.0000000000 -29729490630121590784.0000000000 111012172860093972480.0000000000 -161430752481591513625657344.0000000000 0.9997629112 
0.0010000000 0.0010000000 0.0003846154 -42085859351471038464.0000000000 -29729435493303521280.0000000000 111012101971088834560.0000000000 -425723654254666299125792768.0000000000 0.9996014872 
0.0010000000 0.0010000000 0.0005384615 -42085723244940025856.0000000000 -29729380346920546304.0000000000 111012031073825800192.0000000000 -736061780200087515664744448.0000000000 0.9995718483 
0.0010000000 0.0010000000 0.0006923077 -42085587202968829952.0000000000 -29729325137702985728.0000000000 111011960393726590976.0000000000 -1247414283588757573020418048.0000000000 0.9996312115 
0.0010000000 0.0010000000 0.0008461538 -42085451060920418304.0000000000 -29729269949066387456.0000000000 111011889408464257024.0000000000 -3400525436575595140627824640.0000000000 0.9998148944 
-0.0010000000 0.0010000000 -0.0008461538 -42090093056340541440.0000000000 -29731198873627070464.0000000000 111014307286228844544.0000000000 -807539101143321670112509952.0000000000 0.9954071641 
-0.0010000000 0.0010000000 -0.0006923077 -42089956801521393664.0000000000 -29731143597315280896.0000000000 111014236265249423360.0000000000 -1424195551975992811820417024.0000000000 0.9957858822 
-0.0010000000 0.0010000000 -0.0005384615 -42089820560953679872.0000000000 -29731088339722657792.0000000000 111014165264597106688.0000000000 -2861752110309390339184525312.0000000000 0.9962719059 
-0.0010000000 0.0010000000 -0.0003846154 -42089684350227144704.0000000000 -29731033102564450304.0000000000 111014094201257000960.0000000000 -3038401365417693936128884736.0000000000 0.9968780391 
-0.0010000000 0.0010000000 -0.0002307692 -42089548152517206016.0000000000 -29730977887967207424.0000000000 111014023177850896384.0000000000 -4164510396221341280436748288.0000000000 0.9975438510 
-0.0010000000 0.0010000000 -0.0000769231 -42089411972135550976.0000000000 -29730922713626193920.0000000000 111013952102192545792.0000000000 -4605284757166323905329102848.0000000000 0.9982274194 
-0.0010000000 0.0010000000 0.0000769231 -42089275836832292864.0000000000 -29730867562602053632.0000000000 111013881094322143232.0000000000 -5241905579981214378453106688.0000000000 0.9988763099 
-0.0010000000 0.0010000000 0.0002307692 -42089139727174557696.0000000000 -29730812460196610048.0000000000 111013810052881252352.0000000000 -5639778462109579647842779136.0000000000 0.9994525291 
-0.0010000000 0.0010000000 0.0003846154 -42089003701336473600.0000000000 -29730757361324109824.0000000000 111013739182486192128.0000000000 -6644811825744771771078279168.0000000000 0.9999542151 
-0.0010000000 0.0010000000 0.0005384615 -42088867701127282688.0000000000 -29730702270249295872.0000000000 111013668309990244352.0000000000 -7623111509930376002487189504.0000000000 1.0000000000 
-0.0010000000 0.0010000000 0.0006923077 -42088731772277358592.0000000000 -29730647128260448256.0000000000 111013597639822606336.0000000000 -8163987473589405275356397568.0000000000 1.0000000000 
-0.0010000000 0.0010000000 0.0008461538 -42088595786948067328.0000000000 -29730591989926281216.0000000000 111013526808493522944.0000000000 -6201919119870063523313745920.0000000000 1.0000000000 
-0.0008461538 -0.0008461538 -0.0010000000 -42085139769810214912.0000000000 -29729096247896821760.0000000000 111011737652353777664.0000000000 -1877668419297423215315386368.0000000000 1.0000000000 