 TITLE = "velocity plot"
 VARIABLES = "X", "Y", "Z", "U", "V", "W", "p", "vapFrac"
 ZONE SOLUTIONTIME=0.000000, NODES=2744 , ELEMENTS=2197, DATAPACKING=POINT, ZONETYPE=FEBRICK
-0.0010000000 -0.0010000000 -0.0010000000 -74571383728308816.0000000000 248443448060617024.0000000000 163875570373342400.0000000000 -1146144182129968807936.0000000000 1.0000000000 
0.0010000000 -0.0010000000 -0.0010000000 -74565249752150816.0000000000 248455877366809376.0000000000 163873806153871424.0000000000 -7462843027295495520256.0000000000 1.0000000000 
0.0010000000 0.0010000000 -0.0010000000 -74566641763071488.0000000000 248459856399274144.0000000000 163885386369239808.0000000000 1273629907838201495552.0000000000 1.0000000000 
-0.0010000000 0.0010000000 -0.0010000000 -74572634554296048.0000000000 248447613659114240.0000000000 163886945955520640.0000000000 -4067391530677801320448.0000000000 1.0000000000 
-0.0010000000 -0.0010000000 0.0010000000 -74550027083919168.0000000000 248484103471568320.0000000000 163865121452945408.0000000000 -3053507286306561458176.0000000000 1.0000000000 
0.0010000000 -0.0010000000 0.0010000000 -74543896099195552.0000000000 248496536270468320.0000000000 163863373328744000.0000000000 -4387972808466985648128.0000000000 1.0000000000 
0.0010000000 0.0010000000 0.0010000000 -74545134296300432.0000000000 248501070881170944.0000000000 163875308103846208.0000000000 -74674216549492092567552.0000000000 1.0000000000 
-0.0010000000 0.0010000000 0.0010000000 -74551123479941216.0000000000 248488820346351488.0000000000 163876841384416128.0000000000 -176432821819949902200832.0000000000 1.0000000000 
-0.0008461538 -0.0010000000 -0.0010000000 -74570911860454592.0000000000 248444404198690080.0000000000 163875434658915648.0000000000 599829139319940448256.0000000000 1.0000000000 
-0.0006923077 -0.0010000000 -0.0010000000 -74570440043252384.0000000000 248445360396766208.0000000000 163875299026066720.0000000000 -71365857534425104384.0000000000 1.0000000000 
-0.0005384615 -0.0010000000 -0.0010000000 -74569968180262272.0000000000 248446316540482176.0000000000 163875163346331488.0000000000 627585754556811837440.0000000000 1.0000000000 
-0.0003846154 -0.0010000000 -0.0010000000 -74569496318425568.0000000000 248447272660819488.0000000000 163875027660407904.0000000000 466303245361531977728.0000000000 1.0000000000 
-0.0002307692 -0.0010000000 -0.0010000000 -74569024470350992.0000000000 248448228712226912.0000000000 163874891908452768.0000000000 569420532436479901696.0000000000 1.0000000000 
-0.0000769231 -0.0010000000 -0.0010000000 -74568552653464240.0000000000 248449184870961280.0000000000 163874756275601792.0000000000 1156104809237500395520.0000000000 1.0000000000 
0.0000769231 -0.0010000000 -0.0010000000 -74568080659339872.0000000000 248450140938832960.0000000000 163874620549552416.0000000000 1021171503005142220800.0000000000 1.0000000000 
0.0002307692 -0.0010000000 -0.0010000000 -74567608851401440.0000000000 248451096897663008.0000000000 163874484720776864.0000000000 1117758438237070819328.0000000000 1.0000000000 
0.0003846154 -0.0010000000 -0.0010000000 -74567137021254032.0000000000 248452053004089696.0000000000 163874349032085920.0000000000 1600992079080160493568.0000000000 0.9997012682 
0.0005384615 -0.0010000000 -0.0010000000 -74566665184949712.0000000000 248453009045754048.0000000000 163874213279515712.0000000000 1560372382751379947520.0000000000 1.0000000000 
0.0006923077 -0.0010000000 -0.0010000000 -74566193355070128.0000000000 248453965125614176.0000000000 163874077552507552.0000000000 600294056036246749184.0000000000 1.0000000000 
0.0008461538 -0.0010000000 -0.0010000000 -74565721576095728.0000000000 248454921176413920.0000000000 163873941792147520.0000000000 -354003905390236401664.0000000000 1.0000000000 
0.0010000000 -0.0008461538 -0.0010000000 -74565356153585248.0000000000 248456183440840000.0000000000 163874693882170912.0000000000 1560040307032691572736.0000000000 1.0000000000 
0.0010000000 -0.0006923077 -0.0010000000 -74565462399821504.0000000000 248456492691735488.0000000000 163875586045838016.0000000000 29909357236803764224.0000000000 1.0000000000 
0.0010000000 -0.0005384615 -0.0010000000 -74565568949458736.0000000000 248456802677878432.0000000000 163876479894129760.0000000000 -4257800627050096099328.0000000000 1.0000000000 
0.0010000000 -0.0003846154 -0.0010000000 -74565675283010336.0000000000 248457114218349824.0000000000 163877376354387840.0000000000 -3754144485922915745792.0000000000 1.0000000000 
0.0010000000 -0.0002307692 -0.0010000000 -74565782119639264.0000000000 248457423884978336.0000000000 163878272866119200.0000000000 2281020589000093597696.0000000000 0.9999765024 
0.0010000000 -0.0000769231 -0.0010000000 -74565889921648704.0000000000 248457731862575328.0000000000 163879168426053728.0000000000 -2595021647242180689920.0000000000 0.9998891972 
0.0010000000 0.0000769231 -0.0010000000 -74565998728405344.0000000000 248458034910381024.0000000000 163880060281355712.0000000000 735534614915680043008.0000000000 0.9998178210 
0.0010000000 0.0002307692 -0.0010000000 -74566106572130992.0000000000 248458338996796032.0000000000 163880951847968672.0000000000 -4141024424017978720256.0000000000 0.9997910704 
0.0010000000 0.0003846154 -0.0010000000 -74566214147831680.0000000000 248458642787645312.0000000000 163881841689447648.0000000000 2301263268907128455168.0000000000 0.9997997992 
0.0010000000 0.0005384615 -0.0010000000 -74566322440342784.0000000000 248458942326168320.0000000000 163882726737276704.0000000000 -3024178227885851541504.0000000000 0.9998918441 
0.0010000000 0.0006923077 -0.0010000000 -74566429867143808.0000000000 248459244392333120.0000000000 163883612175910048.0000000000 -1020882760651937677312.0000000000 1.0000000000 
0.0010000000 0.0008461538 -0.0010000000 -74566535819043184.0000000000 248459550284597632.0000000000 163884499186933440.0000000000 -2341362261436201697280.0000000000 1.0000000000 
0.0008461538 0.0010000000 -0.0010000000 -74567102745432592.0000000000 248458914762127616.0000000000 163885506299997088.0000000000 -539884885143832428544.0000000000 1.0000000000 
0.0006923077 0.0010000000 -0.0010000000 -74567563699256368.0000000000 248457972967027040.0000000000 163885626301414976.0000000000 53896661834443603968.0000000000 1.0000000000 
0.0005384615 0.0010000000 -0.0010000000 -74568024705486688.0000000000 248457031193303136.0000000000 163885746256252768.0000000000 -562426072473760169984.0000000000 1.0000000000 
0.0003846154 0.0010000000 -0.0010000000 -74568485727093584.0000000000 248456089366617696.0000000000 163885866200623392.0000000000 -15944384419370557440.0000000000 1.0000000000 
0.0002307692 0.0010000000 -0.0010000000 -74568946734543856.0000000000 248455147603028512.0000000000 163885986087447328.0000000000 445713963520561709056.0000000000 1.0000000000 
0.0000769231 0.0010000000 -0.0010000000 -74569407720376160.0000000000 248454205684213088.0000000000 163886106096680800.0000000000 420759123942570065920.0000000000 1.0000000000 
-0.0000769231 0.0010000000 -0.0010000000 -74569868875369808.0000000000 248453263880936096.0000000000 163886226029539808.0000000000 249753317528322834432.0000000000 0.9997567530 
-0.0002307692 0.0010000000 -0.0010000000 -74570329846392848.0000000000 248452322169183456.0000000000 163886345869654240.0000000000 1379506641127439597568.0000000000 0.9997159452 
-0.0003846154 0.0010000000 -0.0010000000 -74570790824147024.0000000000 248451380364155392.0000000000 163886465873156416.0000000000 -1417565238487534796800.0000000000 1.0000000000 
-0.0005384615 0.0010000000 -0.0010000000 -74571251803451376.0000000000 248450438634911456.0000000000 163886585826819968.0000000000 -1666642358939486257152.0000000000 1.0000000000 
-0.0006923077 0.0010000000 -0.0010000000 -74571712754647168.0000000000 248449496947282880.0000000000 163886705832557184.0000000000 109201098232711217152.0000000000 1.0000000000 
-0.0008461538 0.0010000000 -0.0010000000 -74572173644876928.0000000000 248448555323707552.0000000000 163886825819694240.0000000000 -866879646148791894016.0000000000 1.0000000000 
-0.0010000000 0.0008461538 -0.0010000000 -74572539392784000.0000000000 248447292943977408.0000000000 163886074014147296.0000000000 190067741519148253184.0000000000 1.0000000000 
-0.0010000000 0.0006923077 -0.0010000000 -74572443056520880.0000000000 248446975755816544.0000000000 163885204308949024.0000000000 866890226806263808.0000000000 1.0000000000 
-0.0010000000 0.0005384615 -0.0010000000 -74572346603943200.0000000000 248446659171972128.0000000000 163884333913682656.0000000000 -221946201971719143424.0000000000 1.0000000000 
-0.0010000000 0.0003846154 -0.0010000000 -74572250362048816.0000000000 248446340706029536.0000000000 163883460818163712.0000000000 -73232193691510013952.0000000000 1.0000000000 
-0.0010000000 0.0002307692 -0.0010000000 -74572152539006160.0000000000 248446025497993696.0000000000 163882588131139936.0000000000 -1968259413273465847808.0000000000 1.0000000000 
-0.0010000000 0.0000769231 -0.0010000000 -74572054380367584.0000000000 248445709719590592.0000000000 163881714194545568.0000000000 -2455748342962204966912.0000000000 1.0000000000 
-0.0010000000 -0.0000769231 -0.0010000000 -74571957574323376.0000000000 248445388441941152.0000000000 163880835330336960.0000000000 368167362173409296384.0000000000 1.0000000000 
-0.0010000000 -0.0002307692 -0.0010000000 -74571861559580736.0000000000 248445064855772160.0000000000 163879954272520224.0000000000 1374700349799085637632.0000000000 1.0000000000 
-0.0010000000 -0.0003846154 -0.0010000000 -74571765132172208.0000000000 248444741860236736.0000000000 163879074639219808.0000000000 -11797924606293188608.0000000000 1.0000000000 
-0.0010000000 -0.0005384615 -0.0010000000 -74571669385703520.0000000000 248444416433815040.0000000000 163878194868785280.0000000000 -4080070054683410432000.0000000000 1.0000000000 
-0.0010000000 -0.0006923077 -0.0010000000 -74571574165077968.0000000000 248444092119152768.0000000000 163877317331129248.0000000000 4063754391745724940288.0000000000 1.0000000000 
-0.0010000000 -0.0008461538 -0.0010000000 -74571479311877248.0000000000 248443768213088672.0000000000 163876441427968704.0000000000 305502683872188694528.0000000000 1.0000000000 
-0.0008461538 -0.0010000000 0.0010000000 -74549555481688128.0000000000 248485059732733216.0000000000 163864987022633248.0000000000 -1355939634916932714496.0000000000 0.9997518082 
-0.0006923077 -0.0010000000 0.0010000000 -74549083926553920.0000000000 248486016080519264.0000000000 163864852478249536.0000000000 -713580164885688090624.0000000000 1.0000000000 
-0.0005384615 -0.0010000000 0.0010000000 -74548612321726800.0000000000 248486972391600128.0000000000 163864717971417856.0000000000 85212545492711342080.0000000000 1.0000000000 
-0.0003846154 -0.0010000000 0.0010000000 -74548140712532272.0000000000 248487928709149280.0000000000 163864583446864064.0000000000 493329537494995566592.0000000000 1.0000000000 
-0.0002307692 -0.0010000000 0.0010000000 -74547669110894384.0000000000 248488884979398848.0000000000 163864448989678144.0000000000 -3636192866289365549056.0000000000 1.0000000000 
-0.0000769231 -0.0010000000 0.0010000000 -74547197533456176.0000000000 248489841388096288.0000000000 163864314399650880.0000000000 -1172111602843048476672.0000000000 0.9996625671 
0.0000769231 -0.0010000000 0.0010000000 -74546725770951872.0000000000 248490797729645056.0000000000 163864179915211424.0000000000 -552312810014470045696.0000000000 0.9997611008 
0.0002307692 -0.0010000000 0.0010000000 -74546254187086496.0000000000 248491753991839808.0000000000 163864045530187904.0000000000 -1109940005654188392448.0000000000 0.9996902650 
0.0003846154 -0.0010000000 0.0010000000 -74545782572633120.0000000000 248492710423993600.0000000000 163863911027811872.0000000000 -359967610121076015104.0000000000 0.9998402822 
0.0005384615 -0.0010000000 0.0010000000 -74545310945112800.0000000000 248493666815360608.0000000000 163863776595682368.0000000000 -2432986776063477547008.0000000000 1.0000000000 
0.0006923077 -0.0010000000 0.0010000000 -74544839316320832.0000000000 248494623261489920.0000000000 163863642169580384.0000000000 -171470964179208372224.0000000000 1.0000000000 
0.0008461538 -0.0010000000 0.0010000000 -74544367733337808.0000000000 248495579692415072.0000000000 163863507791254304.0000000000 -1983854502584364564480.0000000000 1.0000000000 
0.0010000000 -0.0008461538 0.0010000000 -74543991868363856.0000000000 248496880467384832.0000000000 163864286339427424.0000000000 -1682551867051151196160.0000000000 1.0000000000 
0.0010000000 -0.0006923077 0.0010000000 -74544088020414480.0000000000 248497223454069376.0000000000 163865198085868704.0000000000 -685162102086309380096.0000000000 1.0000000000 
0.0010000000 -0.0005384615 0.0010000000 -74544183436823952.0000000000 248497569326963072.0000000000 163866111245492032.0000000000 -1348657624015506243584.0000000000 1.0000000000 
0.0010000000 -0.0003846154 0.0010000000 -74544278424421728.0000000000 248497916389279616.0000000000 163867024894200928.0000000000 -3103202951321693454336.0000000000 1.0000000000 
0.0010000000 -0.0002307692 0.0010000000 -74544372951220496.0000000000 248498265809807712.0000000000 163867940920018624.0000000000 -2046852009353719054336.0000000000 1.0000000000 
0.0010000000 -0.0000769231 0.0010000000 -74544467451309440.0000000000 248498618187400832.0000000000 163868860077638240.0000000000 -6236220114070507880448.0000000000 1.0000000000 
0.0010000000 0.0000769231 0.0010000000 -74544561757741568.0000000000 248498971733625632.0000000000 163869781171230656.0000000000 -15180131414617343655936.0000000000 1.0000000000 
0.0010000000 0.0002307692 0.0010000000 -74544655834808272.0000000000 248499326497171936.0000000000 163870705551106432.0000000000 -2082737323815082917888.0000000000 1.0000000000 
0.0010000000 0.0003846154 0.0010000000 -74544749928068032.0000000000 248499682385150336.0000000000 163871630856688288.0000000000 -43549588360407914905600.0000000000 1.0000000000 
0.0010000000 0.0005384615 0.0010000000 -74544846480381328.0000000000 248500030765350752.0000000000 163872552372137568.0000000000 -27420597200108438683648.0000000000 1.0000000000 
0.0010000000 0.0006923077 0.0010000000 -74544942535826112.0000000000 248500378891976736.0000000000 163873472953492192.0000000000 -3060430909306343260160.0000000000 1.0000000000 
0.0010000000 0.0008461538 0.0010000000 -74545038109883872.0000000000 248500726931620128.0000000000 163874393228092224.0000000000 -9113845062132259880960.0000000000 1.0000000000 
0.0008461538 0.0010000000 0.0010000000 -74545594929798400.0000000000 248500128854531392.0000000000 163875426293504512.0000000000 -21824192580133356306432.0000000000 1.0000000000 
0.0006923077 0.0010000000 0.0010000000 -74546055549900496.0000000000 248499186635388160.0000000000 163875544316459904.0000000000 -1228255709239308713984.0000000000 1.0000000000 
0.0005384615 0.0010000000 0.0010000000 -74546516231831264.0000000000 248498244412003456.0000000000 163875662347693856.0000000000 -32216923957924569546752.0000000000 1.0000000000 
0.0003846154 0.0010000000 0.0010000000 -74546976945453344.0000000000 248497302094074560.0000000000 163875780308272640.0000000000 -38547644269217412284416.0000000000 1.0000000000 
0.0002307692 0.0010000000 0.0010000000 -74547437655584800.0000000000 248496359805593632.0000000000 163875898307452000.0000000000 -34371433365277260120064.0000000000 1.0000000000 
0.0000769231 0.0010000000 0.0010000000 -74547898360198416.0000000000 248495417316676032.0000000000 163876016125825056.0000000000 -32565660228019394969600.0000000000 1.0000000000 
-0.0000769231 0.0010000000 0.0010000000 -74548359244278800.0000000000 248494474906105056.0000000000 163876134026757952.0000000000 -36863278617887850364928.0000000000 0.9999725752 
-0.0002307692 0.0010000000 0.0010000000 -74548819958339984.0000000000 248493532544040384.0000000000 163876251989552736.0000000000 -45996717474619561345024.0000000000 0.9994262382 
-0.0003846154 0.0010000000 0.0010000000 -74549280687111328.0000000000 248492590054242144.0000000000 163876369822625664.0000000000 -87986183504480979386368.0000000000 0.9996591891 
-0.0005384615 0.0010000000 0.0010000000 -74549741427214208.0000000000 248491647606243200.0000000000 163876487703332384.0000000000 -35074011462737393090560.0000000000 1.0000000000 
-0.0006923077 0.0010000000 0.0010000000 -74550202143178976.0000000000 248490705174414112.0000000000 163876605591548096.0000000000 6646406512062894178304.0000000000 1.0000000000 
-0.0008461538 0.0010000000 0.0010000000 -74550662802446016.0000000000 248489762787143712.0000000000 163876723522117632.0000000000 -34549510648900190470144.0000000000 1.0000000000 
-0.0010000000 0.0008461538 0.0010000000 -74551038538340784.0000000000 248488460279941536.0000000000 163875940598731744.0000000000 -49794035855048113651712.0000000000 1.0000000000 
-0.0010000000 0.0006923077 0.0010000000 -74550952673289584.0000000000 248488100124899072.0000000000 163875037681713952.0000000000 2947274876032500891648.0000000000 1.0000000000 
-0.0010000000 0.0005384615 0.0010000000 -74550867484934800.0000000000 248487737489374048.0000000000 163874133146407840.0000000000 -28786997748012442189824.0000000000 1.0000000000 
-0.0010000000 0.0003846154 0.0010000000 -74550783846166416.0000000000 248487368911830944.0000000000 163873223607174432.0000000000 -22565373140036046815232.0000000000 1.0000000000 
-0.0010000000 0.0002307692 0.0010000000 -74550700128095920.0000000000 248487000962052320.0000000000 163872316012257760.0000000000 -45105893230272523010048.0000000000 1.0000000000 
-0.0010000000 0.0000769231 0.0010000000 -74550616026372288.0000000000 248486634114870816.0000000000 163871409943168320.0000000000 -11301734799513005064192.0000000000 1.0000000000 
-0.0010000000 -0.0000769231 0.0010000000 -74550533182864592.0000000000 248486264792970464.0000000000 163870504430039552.0000000000 -6034597576524200673280.0000000000 1.0000000000 
-0.0010000000 -0.0002307692 0.0010000000 -74550449705223984.0000000000 248485900287873728.0000000000 163869603125449920.0000000000 -55419921628324444504064.0000000000 1.0000000000 
-0.0010000000 -0.0003846154 0.0010000000 -74550366069389760.0000000000 248485537020481504.0000000000 163868704311120384.0000000000 -15448156218412238897152.0000000000 1.0000000000 
-0.0010000000 -0.0005384615 0.0010000000 -74550281744757024.0000000000 248485176294538912.0000000000 163867807583879456.0000000000 -481672462124914049024.0000000000 1.0000000000 
-0.0010000000 -0.0006923077 0.0010000000 -74550197005289360.0000000000 248484818556653120.0000000000 163866912333105632.0000000000 102652102042399506432.0000000000 1.0000000000 
-0.0010000000 -0.0008461538 0.0010000000 -74550112043148000.0000000000 248484461676567776.0000000000 163866017486951648.0000000000 -873121854562663661568.0000000000 1.0000000000 
-0.0010000000 -0.0010000000 -0.0008461538 -74569741389835536.0000000000 248446574107877760.0000000000 163874766543672480.0000000000 -230716504149151776768.0000000000 1.0000000000 
-0.0010000000 -0.0010000000 -0.0006923077 -74568098954028640.0000000000 248449700322464288.0000000000 163873962784774784.0000000000 -51673501071193587712.0000000000 1.0000000000 
-0.0010000000 -0.0010000000 -0.0005384615 -74566456535147536.0000000000 248452826676762400.0000000000 163873159103072288.0000000000 -621045974041856049152.0000000000 1.0000000000 
-0.0010000000 -0.0010000000 -0.0003846154 -74564814027891888.0000000000 248455953404909344.0000000000 163872355596265632.0000000000 -272854986025846177792.0000000000 1.0000000000 
-0.0010000000 -0.0010000000 -0.0002307692 -74563171454795712.0000000000 248459080568274400.0000000000 163871552192117056.0000000000 758238050967005429760.0000000000 1.0000000000 
-0.0010000000 -0.0010000000 -0.0000769231 -74561528580204352.0000000000 248462208453685952.0000000000 163870748990051776.0000000000 -4803585617221187010560.0000000000 1.0000000000 
-0.0010000000 -0.0010000000 0.0000769231 -74559885640316624.0000000000 248465336658473536.0000000000 163869945945670208.0000000000 -4434908280313965182976.0000000000 1.0000000000 
-0.0010000000 -0.0010000000 0.0002307692 -74558242646715200.0000000000 248468465045607744.0000000000 163869142741453568.0000000000 -15743973916231509999616.0000000000 1.0000000000 
-0.0010000000 -0.0010000000 0.0003846154 -74556599458283728.0000000000 248471593498225376.0000000000 163868339245584960.0000000000 -676830387002513424384.0000000000 1.0000000000 
-0.0010000000 -0.0010000000 0.0005384615 -74554956277478672.0000000000 248474721737731744.0000000000 163867535542318912.0000000000 -2982725908903822884864.0000000000 1.0000000000 
-0.0010000000 -0.0010000000 0.0006923077 -74553313136934576.0000000000 248477849479438624.0000000000 163866731302783776.0000000000 -446180137693484154880.0000000000 1.0000000000 
-0.0010000000 -0.0010000000 0.0008461538 -74551670084676720.0000000000 248480976778444416.0000000000 163865926684539200.0000000000 -902421123579876868096.0000000000 1.0000000000 
0.0010000000 -0.0010000000 -0.0008461538 -74563607608990560.0000000000 248459003593180960.0000000000 163873003408688288.0000000000 1468003336284274688000.0000000000 1.0000000000 
0.0010000000 -0.0010000000 -0.0006923077 -74561965372816576.0000000000 248462130759933184.0000000000 163872201196552480.0000000000 41137187499098505216.0000000000 1.0000000000 
0.0010000000 -0.0010000000 -0.0005384615 -74560322949291104.0000000000 248465258364425984.0000000000 163871399253141632.0000000000 805246861636225073152.0000000000 1.0000000000 
0.0010000000 -0.0010000000 -0.0003846154 -74558680351570032.0000000000 248468386604100256.0000000000 163870597661159488.0000000000 24651913187612688384.0000000000 1.0000000000 
0.0010000000 -0.0010000000 -0.0002307692 -74557037604220080.0000000000 248471514874560768.0000000000 163869795948435680.0000000000 -196854897599822364672.0000000000 1.0000000000 
0.0010000000 -0.0010000000 -0.0000769231 -74555394937650864.0000000000 248474643356488416.0000000000 163868994140872736.0000000000 733467652474918273024.0000000000 1.0000000000 
0.0010000000 -0.0010000000 0.0000769231 -74553752186121296.0000000000 248477771428328352.0000000000 163868192098646848.0000000000 -703252140820656553984.0000000000 1.0000000000 
0.0010000000 -0.0010000000 0.0002307692 -74552109378441392.0000000000 248480899201866592.0000000000 163867389641256608.0000000000 -892039138834296340480.0000000000 1.0000000000 
0.0010000000 -0.0010000000 0.0003846154 -74550466742156976.0000000000 248484026807298880.0000000000 163866586803239584.0000000000 -1272840077063883063296.0000000000 1.0000000000 
0.0010000000 -0.0010000000 0.0005384615 -74548824089317936.0000000000 248487154184393664.0000000000 163865783763655520.0000000000 -13550844631096494080.0000000000 1.0000000000 
0.0010000000 -0.0010000000 0.0006923077 -74547181442190400.0000000000 248490281486669920.0000000000 163864980443856768.0000000000 -970949307583337070592.0000000000 1.0000000000 
0.0010000000 -0.0010000000 0.0008461538 -74545538761012800.0000000000 248493408758513664.0000000000 163864176947611648.0000000000 -439576673346223734784.0000000000 1.0000000000 
0.0010000000 0.0010000000 -0.0008461538 -74564987284204816.0000000000 248463026095134720.0000000000 163884610309262368.0000000000 9794149461593980928.0000000000 1.0000000000 
0.0010000000 0.0010000000 -0.0006923077 -74563333000681520.0000000000 248466195426202080.0000000000 163883834238367264.0000000000 -10476844884256962560.0000000000 1.0000000000 
0.0010000000 0.0010000000 -0.0005384615 -74561678785714992.0000000000 248469364547515744.0000000000 163883058147076960.0000000000 330153117249668120576.0000000000 0.9999343057 
0.0010000000 0.0010000000 -0.0003846154 -74560024658033936.0000000000 248472533576966784.0000000000 163882282193520672.0000000000 -1913926834064567042048.0000000000 0.9999558146 
0.0010000000 0.0010000000 -0.0002307692 -74558370527481360.0000000000 248475702710225280.0000000000 163881506309553856.0000000000 -2613552659445227978752.0000000000 1.0000000000 
0.0010000000 0.0010000000 -0.0000769231 -74556716497932784.0000000000 248478872090184096.0000000000 163880730733908960.0000000000 -3478140241872944627712.0000000000 1.0000000000 
0.0010000000 0.0010000000 0.0000769231 -74555062316979904.0000000000 248482041941449632.0000000000 163879955535978688.0000000000 -3316040504341600141312.0000000000 1.0000000000 
0.0010000000 0.0010000000 0.0002307692 -74553407893138112.0000000000 248485212582541152.0000000000 163879180605596832.0000000000 -8777249898932469760000.0000000000 1.0000000000 
0.0010000000 0.0010000000 0.0003846154 -74551753464608528.0000000000 248488383592502560.0000000000 163878405892027808.0000000000 -13396820420303670738944.0000000000 1.0000000000 
0.0010000000 0.0010000000 0.0005384615 -74550098782646608.0000000000 248491555272000672.0000000000 163877631534247520.0000000000 -10679527459905765113856.0000000000 1.0000000000 
0.0010000000 0.0010000000 0.0006923077 -74548444003881184.0000000000 248494727129979616.0000000000 163876857158918720.0000000000 649709309437509369856.0000000000 1.0000000000 
0.0010000000 0.0010000000 0.0008461538 -74546789098367984.0000000000 248497899181548768.0000000000 163876082769984832.0000000000 -21446503884495060467712.0000000000 1.0000000000 
-0.0010000000 0.0010000000 -0.0008461538 -74570980184161040.0000000000 248450782358936384.0000000000 163886167804790240.0000000000 -2498707630255039840256.0000000000 1.0000000000 
-0.0010000000 0.0010000000 -0.0006923077 -74569325562529040.0000000000 248453951632431136.0000000000 163885390167015264.0000000000 945543888839292616704.0000000000 1.0000000000 
-0.0010000000 0.0010000000 -0.0005384615 -74567670907113376.0000000000 248457121151760896.0000000000 163884612751841408.0000000000 -16900639377113894354944.0000000000 1.0000000000 
-0.0010000000 0.0010000000 -0.0003846154 -74566016167729328.0000000000 248460290942385952.0000000000 163883835626431712.0000000000 -28283962607412575207424.0000000000 1.0000000000 
-0.0010000000 0.0010000000 -0.0002307692 -74564361487686224.0000000000 248463460678241920.0000000000 163883058447838272.0000000000 -35149629378491639136256.0000000000 1.0000000000 
-0.0010000000 0.0010000000 -0.0000769231 -74562706695170016.0000000000 248466630279978784.0000000000 163882281320385120.0000000000 -25740315744973965230080.0000000000 1.0000000000 
-0.0010000000 0.0010000000 0.0000769231 -74561052017308368.0000000000 248469799805360832.0000000000 163881504247766464.0000000000 -22639308875497434251264.0000000000 1.0000000000 
-0.0010000000 0.0010000000 0.0002307692 -74559397477276992.0000000000 248472969401997888.0000000000 163880727015021184.0000000000 -6037727042214870122496.0000000000 1.0000000000 
-0.0010000000 0.0010000000 0.0003846154 -74557742796652144.0000000000 248476138914745696.0000000000 163879949728661632.0000000000 -29049428399395260334080.0000000000 1.0000000000 
-0.0010000000 0.0010000000 0.0005384615 -74556088167377152.0000000000 248479308681456736.0000000000 163879172503553216.0000000000 -24429312398389858533376.0000000000 1.0000000000 
-0.0010000000 0.0010000000 0.0006923077 -74554433403988592.0000000000 248482478833415040.0000000000 163878395351572800.0000000000 5613171095228186099712.0000000000 1.0000000000 
-0.0010000000 0.0010000000 0.0008461538 -74552778586974432.0000000000 248485649403242496.0000000000 163877618288931456.0000000000 -70476966292808443887616.0000000000 1.0000000000 
-0.0008461538 -0.0008461538 -0.0010000000 -74571008249309984.0000000000 248444723293744544.0000000000 163876307102260736.0000000000 220769005665358184448.0000000000 1.0000000000 
-0.0008461538 -0.0006923077 -0.0010000000 -74571103953453136.0000000000 248445046069852512.0000000000 163877184231176000.0000000000 -7673169720636715565056.0000000000 1.0000000000 
-0.0008461538 -0.0005384615 -0.0010000000 -74571200087028592.0000000000 248445369273622752.0000000000 163878062980416480.0000000000 -1162150084492246646784.0000000000 1.0000000000 
-0.0008461538 -0.0003846154 -0.0010000000 -74571296727399168.0000000000 248445693461102944.0000000000 163878943907634400.0000000000 692963133386711891968.0000000000 1.0000000000 
-0.0008461538 -0.0002307692 -0.0010000000 -74571393915531936.0000000000 248446015403119680.0000000000 163879824880930560.0000000000 -6944351973286399180800.0000000000 0.9999899486 
-0.0008461538 -0.0000769231 -0.0010000000 -74571490805532480.0000000000 248446337994984832.0000000000 163880707228156896.0000000000 -96345686137861406720.0000000000 0.9998712524 
-0.0008461538 0.0000769231 -0.0010000000 -74571588574742576.0000000000 248446657767023008.0000000000 163881587007289632.0000000000 -114524668707520446464.0000000000 0.9998411606 
-0.0008461538 0.0002307692 -0.0010000000 -74571687577355024.0000000000 248446972190366112.0000000000 163882461988803680.0000000000 -159097504044377604096.0000000000 0.9998830549 
-0.0008461538 0.0003846154 -0.0010000000 -74571786110568176.0000000000 248447286767516096.0000000000 163883336141080704.0000000000 -444083540953704300544.0000000000 1.0000000000 
-0.0008461538 0.0005384615 -0.0010000000 -74571883158347648.0000000000 248447604044756992.0000000000 163884210390849056.0000000000 -27605222300583243776.0000000000 1.0000000000 
-0.0008461538 0.0006923077 -0.0010000000 -74571980552303808.0000000000 248447919255398112.0000000000 163885081699801696.0000000000 -116463181810979700736.0000000000 1.0000000000 
-0.0008461538 0.0008461538 -0.0010000000 -74572077676629184.0000000000 248448235530471776.0000000000 163885952709842912.0000000000 -1296902756746929897472.0000000000 1.0000000000 
-0.0006923077 -0.0008461538 -0.0010000000 -74570537255431920.0000000000 248445678402123200.0000000000 163876172727710912.0000000000 342029271327812812800.0000000000 1.0000000000 
-0.0006923077 -0.0006923077 -0.0010000000 -74570633786679744.0000000000 248446000058580000.0000000000 163877051108479520.0000000000 1428860571169507246080.0000000000 1.0000000000 